# vtk DataFile Version 2.0
geometrically linear steady-state plane stress analysis
ASCII

DATASET UNSTRUCTURED_GRID
POINTS 147 double
  0.000000  0.300000  0.000000
  0.000000  0.250000  0.000000
  0.053258  0.342792  0.000000
  0.053391  0.248424  0.000000
  0.000000  0.200000  0.000000
  0.112620  0.324097  0.000000
  0.104402  0.244103  0.000000
  0.050880  0.197671  0.000000
  0.102135  0.194828  0.000000
  0.000000  0.150000  0.000000
  0.163606  0.315343  0.000000
  0.156058  0.239852  0.000000
  0.049658  0.147612  0.000000
  0.100040  0.144889  0.000000
  0.153119  0.190789  0.000000
  0.215644  0.305834  0.000000
  0.000000  0.100000  0.000000
  0.207760  0.234963  0.000000
  0.048791  0.097462  0.000000
  0.150210  0.140991  0.000000
  0.203985  0.185826  0.000000
  0.098207  0.095281  0.000000
  0.147322  0.090755  0.000000
  0.267475  0.295878  0.000000
  0.000000  0.050000  0.000000
  0.200222  0.135991  0.000000
  0.259387  0.229362  0.000000
  0.046177  0.054460  0.000000
  0.254771  0.180074  0.000000
  0.096136  0.043781  0.000000
  0.196414  0.085819  0.000000
  0.250204  0.130248  0.000000
  0.144328  0.040497  0.000000
  0.000000  0.000000  0.000000
  0.319116  0.285697  0.000000
  0.037978  -0.043739  0.000000
  0.310895  0.223054  0.000000
  0.091502  -0.035061  0.000000
  0.305497  0.173636  0.000000
  0.192735  0.035754  0.000000
  0.245607  0.080132  0.000000
  0.137831  -0.036038  0.000000
  0.300199  0.123818  0.000000
  0.370584  0.275427  0.000000
  0.362262  0.216092  0.000000
  0.241173  0.030146  0.000000
  0.185384  -0.037012  0.000000
  0.294886  0.073746  0.000000
  0.356164  0.166578  0.000000
  0.350206  0.116762  0.000000
  0.233193  -0.038707  0.000000
  0.289691  0.023752  0.000000
  0.421891  0.265170  0.000000
  0.344244  0.066721  0.000000
  0.413477  0.208551  0.000000
  0.406766  0.158971  0.000000
  0.281279  -0.041284  0.000000
  0.400221  0.109153  0.000000
  0.338323  0.016686  0.000000
  0.393678  0.059133  0.000000
  0.473039  0.254991  0.000000
  0.464531  0.200521  0.000000
  0.329634  -0.044854  0.000000
  0.457297  0.150895  0.000000
  0.387100  0.009055  0.000000
  0.450241  0.101072  0.000000
  0.443187  0.051067  0.000000
  0.524026  0.244933  0.000000
  0.378243  -0.049457  0.000000
  0.515425  0.192097  0.000000
  0.507754  0.142435  0.000000
  0.436040  0.000961  0.000000
  0.500262  0.092606  0.000000
  0.492772  0.042613  0.000000
  0.427088  -0.055063  0.000000
  0.574852  0.235018  0.000000
  0.566161  0.183370  0.000000
  0.485150  -0.007500  0.000000
  0.558138  0.133680  0.000000
  0.550284  0.083846  0.000000
  0.476149  -0.061579  0.000000
  0.542431  0.033864  0.000000
  0.625518  0.225254  0.000000
  0.616751  0.174431  0.000000
  0.534431  -0.016240  0.000000
  0.608453  0.124716  0.000000
  0.600309  0.074876  0.000000
  0.525402  -0.068872  0.000000
  0.592163  0.024908  0.000000
  0.676031  0.215643  0.000000
  0.583872  -0.025177  0.000000
  0.667207  0.165358  0.000000
  0.658706  0.115622  0.000000
  0.650337  0.065778  0.000000
  0.574827  -0.076786  0.000000
  0.641964  0.015822  0.000000
  0.633457  -0.034236  0.000000
  0.726404  0.206181  0.000000
  0.717547  0.156222  0.000000
  0.708905  0.106467  0.000000
  0.700369  0.056621  0.000000
  0.624404  -0.085163  0.000000
  0.691826  0.006677  0.000000
  0.683167  -0.043355  0.000000
  0.776652  0.196862  0.000000
  0.767791  0.147082  0.000000
  0.759060  0.097311  0.000000
  0.674111  -0.093854  0.000000
  0.750406  0.047462  0.000000
  0.741740  -0.002472  0.000000
  0.732979  -0.052480  0.000000
  0.826796  0.187686  0.000000
  0.817961  0.137990  0.000000
  0.809182  0.088204  0.000000
  0.723927  -0.102734  0.000000
  0.800446  0.038347  0.000000
  0.791695  -0.011583  0.000000
  0.782869  -0.061573  0.000000
  0.876864  0.178662  0.000000
  0.868078  0.128996  0.000000
  0.773828  -0.111701  0.000000
  0.859275  0.079180  0.000000
  0.850487  0.029305  0.000000
  0.841677  -0.020630  0.000000
  0.832814  -0.070612  0.000000
  0.926863  0.169583  0.000000
  0.823787  -0.120683  0.000000
  0.918151  0.120128  0.000000
  0.909340  0.070257  0.000000
  0.900518  0.020345  0.000000
  0.891674  -0.029607  0.000000
  0.882791  -0.079589  0.000000
  0.873781  -0.129642  0.000000
  0.928636  0.169801  0.000000
  0.968209  0.111338  0.000000
  0.959379  0.061404  0.000000
  0.950537  0.011449  0.000000
  0.941674  -0.038527  0.000000
  0.932782  -0.088517  0.000000
  0.923785  -0.138568  0.000000
  0.939883  0.167580  0.000000
  1.018151  0.102540  0.000000
  1.009325  0.052531  0.000000
  1.000471  0.002534  0.000000
  0.991597  -0.047468  0.000000
  0.982701  -0.097473  0.000000
  0.973748  -0.147502  0.000000

CELLS  240  960
  3  35  27  33
  3  27  24  33
  3  37  29  35
  3  29  27  35
  3  41  32  37
  3  32  29  37
  3  46  39  41
  3  39  32  41
  3  50  45  46
  3  45  39  46
  3  56  51  50
  3  51  45  50
  3  62  58  56
  3  58  51  56
  3  68  64  62
  3  64  58  62
  3  74  71  68
  3  71  64  68
  3  80  77  74
  3  77  71  74
  3  87  84  80
  3  84  77  80
  3  94  90  87
  3  90  84  87
  3  101  96  94
  3  96  90  94
  3  107  103  101
  3  103  96  101
  3  114  110  107
  3  110  103  107
  3  120  117  114
  3  117  110  114
  3  126  124  120
  3  124  117  120
  3  132  131  126
  3  131  124  126
  3  139  138  132
  3  138  131  132
  3  146  145  139
  3  145  138  139
  3  27  18  24
  3  18  16  24
  3  29  21  27
  3  21  18  27
  3  32  22  29
  3  22  21  29
  3  39  30  32
  3  30  22  32
  3  45  40  39
  3  40  30  39
  3  51  47  45
  3  47  40  45
  3  58  53  51
  3  53  47  51
  3  64  59  58
  3  59  53  58
  3  71  66  64
  3  66  59  64
  3  77  73  71
  3  73  66  71
  3  84  81  77
  3  81  73  77
  3  90  88  84
  3  88  81  84
  3  96  95  90
  3  95  88  90
  3  103  102  96
  3  102  95  96
  3  110  109  103
  3  109  102  103
  3  117  116  110
  3  116  109  110
  3  124  123  117
  3  123  116  117
  3  131  130  124
  3  130  123  124
  3  138  137  131
  3  137  130  131
  3  145  144  138
  3  144  137  138
  3  18  12  16
  3  12  9  16
  3  21  13  18
  3  13  12  18
  3  22  19  21
  3  19  13  21
  3  30  25  22
  3  25  19  22
  3  40  31  30
  3  31  25  30
  3  47  42  40
  3  42  31  40
  3  53  49  47
  3  49  42  47
  3  59  57  53
  3  57  49  53
  3  66  65  59
  3  65  57  59
  3  73  72  66
  3  72  65  66
  3  81  79  73
  3  79  72  73
  3  88  86  81
  3  86  79  81
  3  95  93  88
  3  93  86  88
  3  102  100  95
  3  100  93  95
  3  109  108  102
  3  108  100  102
  3  116  115  109
  3  115  108  109
  3  123  122  116
  3  122  115  116
  3  130  129  123
  3  129  122  123
  3  137  136  130
  3  136  129  130
  3  144  143  137
  3  143  136  137
  3  12  7  9
  3  7  4  9
  3  13  8  12
  3  8  7  12
  3  19  14  13
  3  14  8  13
  3  25  20  19
  3  20  14  19
  3  31  28  25
  3  28  20  25
  3  42  38  31
  3  38  28  31
  3  49  48  42
  3  48  38  42
  3  57  55  49
  3  55  48  49
  3  65  63  57
  3  63  55  57
  3  72  70  65
  3  70  63  65
  3  79  78  72
  3  78  70  72
  3  86  85  79
  3  85  78  79
  3  93  92  86
  3  92  85  86
  3  100  99  93
  3  99  92  93
  3  108  106  100
  3  106  99  100
  3  115  113  108
  3  113  106  108
  3  122  121  115
  3  121  113  115
  3  129  128  122
  3  128  121  122
  3  136  135  129
  3  135  128  129
  3  143  142  136
  3  142  135  136
  3  7  3  4
  3  3  1  4
  3  8  6  7
  3  6  3  7
  3  14  11  8
  3  11  6  8
  3  20  17  14
  3  17  11  14
  3  28  26  20
  3  26  17  20
  3  38  36  28
  3  36  26  28
  3  48  44  38
  3  44  36  38
  3  55  54  48
  3  54  44  48
  3  63  61  55
  3  61  54  55
  3  70  69  63
  3  69  61  63
  3  78  76  70
  3  76  69  70
  3  85  83  78
  3  83  76  78
  3  92  91  85
  3  91  83  85
  3  99  98  92
  3  98  91  92
  3  106  105  99
  3  105  98  99
  3  113  112  106
  3  112  105  106
  3  121  119  113
  3  119  112  113
  3  128  127  121
  3  127  119  121
  3  135  134  128
  3  134  127  128
  3  142  141  135
  3  141  134  135
  3  3  2  1
  3  2  0  1
  3  6  5  3
  3  5  2  3
  3  11  10  6
  3  10  5  6
  3  17  15  11
  3  15  10  11
  3  26  23  17
  3  23  15  17
  3  36  34  26
  3  34  23  26
  3  44  43  36
  3  43  34  36
  3  54  52  44
  3  52  43  44
  3  61  60  54
  3  60  52  54
  3  69  67  61
  3  67  60  61
  3  76  75  69
  3  75  67  69
  3  83  82  76
  3  82  75  76
  3  91  89  83
  3  89  82  83
  3  98  97  91
  3  97  89  91
  3  105  104  98
  3  104  97  98
  3  112  111  105
  3  111  104  105
  3  119  118  112
  3  118  111  112
  3  127  125  119
  3  125  118  119
  3  134  133  127
  3  133  125  127
  3  141  140  134
  3  140  133  134

CELL_TYPES 240
5
5
5
5
5
5
5
5
5
5
5
5
5
5
5
5
5
5
5
5
5
5
5
5
5
5
5
5
5
5
5
5
5
5
5
5
5
5
5
5
5
5
5
5
5
5
5
5
5
5
5
5
5
5
5
5
5
5
5
5
5
5
5
5
5
5
5
5
5
5
5
5
5
5
5
5
5
5
5
5
5
5
5
5
5
5
5
5
5
5
5
5
5
5
5
5
5
5
5
5
5
5
5
5
5
5
5
5
5
5
5
5
5
5
5
5
5
5
5
5
5
5
5
5
5
5
5
5
5
5
5
5
5
5
5
5
5
5
5
5
5
5
5
5
5
5
5
5
5
5
5
5
5
5
5
5
5
5
5
5
5
5
5
5
5
5
5
5
5
5
5
5
5
5
5
5
5
5
5
5
5
5
5
5
5
5
5
5
5
5
5
5
5
5
5
5
5
5
5
5
5
5
5
5
5
5
5
5
5
5
5
5
5
5
5
5
5
5
5
5
5
5
5
5
5
5
5
5
5
5
5
5
5
5
5
5
5
5
5
5

CELL_DATA 240
TENSORS strain double
  -0.092069  -0.007567  0.000000
  -0.007567  0.021240  0.000000
  0.000000  0.000000  0.000000

  -0.029375  -0.021356  0.000000
  -0.021356  0.000000  0.000000
  0.000000  0.000000  0.000000

  -0.056665  -0.002292  0.000000
  -0.002292  0.016653  0.000000
  0.000000  0.000000  0.000000

  -0.045525  -0.009506  0.000000
  -0.009506  0.021319  0.000000
  0.000000  0.000000  0.000000

  -0.059764  -0.004372  0.000000
  -0.004372  0.015568  0.000000
  0.000000  0.000000  0.000000

  -0.038354  -0.012101  0.000000
  -0.012101  0.016686  0.000000
  0.000000  0.000000  0.000000

  -0.056280  -0.004790  0.000000
  -0.004790  0.014353  0.000000
  0.000000  0.000000  0.000000

  -0.034854  -0.013146  0.000000
  -0.013146  0.015829  0.000000
  0.000000  0.000000  0.000000

  -0.052576  -0.005013  0.000000
  -0.005013  0.013119  0.000000
  0.000000  0.000000  0.000000

  -0.031645  -0.013550  0.000000
  -0.013550  0.014649  0.000000
  0.000000  0.000000  0.000000

  -0.048236  -0.004928  0.000000
  -0.004928  0.011863  0.000000
  0.000000  0.000000  0.000000

  -0.028682  -0.013306  0.000000
  -0.013306  0.013404  0.000000
  0.000000  0.000000  0.000000

  -0.043304  -0.004605  0.000000
  -0.004605  0.010566  0.000000
  0.000000  0.000000  0.000000

  -0.025774  -0.012530  0.000000
  -0.012530  0.012110  0.000000
  0.000000  0.000000  0.000000

  -0.037902  -0.004146  0.000000
  -0.004146  0.009221  0.000000
  0.000000  0.000000  0.000000

  -0.022812  -0.011365  0.000000
  -0.011365  0.010761  0.000000
  0.000000  0.000000  0.000000

  -0.032231  -0.003649  0.000000
  -0.003649  0.007840  0.000000
  0.000000  0.000000  0.000000

  -0.019765  -0.009965  0.000000
  -0.009965  0.009363  0.000000
  0.000000  0.000000  0.000000

  -0.026535  -0.003185  0.000000
  -0.003185  0.006456  0.000000
  0.000000  0.000000  0.000000

  -0.016667  -0.008480  0.000000
  -0.008480  0.007934  0.000000
  0.000000  0.000000  0.000000

  -0.021060  -0.002785  0.000000
  -0.002785  0.005114  0.000000
  0.000000  0.000000  0.000000

  -0.013600  -0.007026  0.000000
  -0.007026  0.006513  0.000000
  0.000000  0.000000  0.000000

  -0.016014  -0.002447  0.000000
  -0.002447  0.003863  0.000000
  0.000000  0.000000  0.000000

  -0.010670  -0.005679  0.000000
  -0.005679  0.005145  0.000000
  0.000000  0.000000  0.000000

  -0.011552  -0.002146  0.000000
  -0.002146  0.002744  0.000000
  0.000000  0.000000  0.000000

  -0.007981  -0.004470  0.000000
  -0.004470  0.003878  0.000000
  0.000000  0.000000  0.000000

  -0.007776  -0.001850  0.000000
  -0.001850  0.001790  0.000000
  0.000000  0.000000  0.000000

  -0.005624  -0.003398  0.000000
  -0.003398  0.002751  0.000000
  0.000000  0.000000  0.000000

  -0.004746  -0.001529  0.000000
  -0.001529  0.001025  0.000000
  0.000000  0.000000  0.000000

  -0.003664  -0.002453  0.000000
  -0.002453  0.001792  0.000000
  0.000000  0.000000  0.000000

  -0.002487  -0.001173  0.000000
  -0.001173  0.000465  0.000000
  0.000000  0.000000  0.000000

  -0.002145  -0.001624  0.000000
  -0.001624  0.001025  0.000000
  0.000000  0.000000  0.000000

  -0.000983  -0.000788  0.000000
  -0.000788  0.000110  0.000000
  0.000000  0.000000  0.000000

  -0.001079  -0.000918  0.000000
  -0.000918  0.000464  0.000000
  0.000000  0.000000  0.000000

  -0.000167  -0.000410  0.000000
  -0.000410  -0.000053  0.000000
  0.000000  0.000000  0.000000

  -0.000437  -0.000356  0.000000
  -0.000356  0.000109  0.000000
  0.000000  0.000000  0.000000

  0.000105  -0.000103  0.000000
  -0.000103  -0.000065  0.000000
  0.000000  0.000000  0.000000

  -0.000130  0.000009  0.000000
  0.000009  -0.000054  0.000000
  0.000000  0.000000  0.000000

  0.000034  0.000067  0.000000
  0.000067  0.000034  0.000000
  0.000000  0.000000  0.000000

  -0.000056  0.000161  0.000000
  0.000161  -0.000065  0.000000
  0.000000  0.000000  0.000000

  -0.031277  -0.014599  0.000000
  -0.014599  0.003120  0.000000
  0.000000  0.000000  0.000000

  -0.017396  -0.020015  0.000000
  -0.020015  0.000000  0.000000
  0.000000  0.000000  0.000000

  -0.046261  -0.012971  0.000000
  -0.012971  0.011657  0.000000
  0.000000  0.000000  0.000000

  -0.019297  -0.025886  0.000000
  -0.025886  0.004185  0.000000
  0.000000  0.000000  0.000000

  -0.038432  -0.009666  0.000000
  -0.009666  0.009701  0.000000
  0.000000  0.000000  0.000000

  -0.020946  -0.019254  0.000000
  -0.019254  0.011594  0.000000
  0.000000  0.000000  0.000000

  -0.034879  -0.009075  0.000000
  -0.009075  0.008305  0.000000
  0.000000  0.000000  0.000000

  -0.018269  -0.018068  0.000000
  -0.018068  0.009654  0.000000
  0.000000  0.000000  0.000000

  -0.031649  -0.008757  0.000000
  -0.008757  0.007042  0.000000
  0.000000  0.000000  0.000000

  -0.016212  -0.017076  0.000000
  -0.017076  0.008214  0.000000
  0.000000  0.000000  0.000000

  -0.028670  -0.008568  0.000000
  -0.008568  0.005973  0.000000
  0.000000  0.000000  0.000000

  -0.014393  -0.016211  0.000000
  -0.016211  0.006954  0.000000
  0.000000  0.000000  0.000000

  -0.025757  -0.008392  0.000000
  -0.008392  0.005070  0.000000
  0.000000  0.000000  0.000000

  -0.012724  -0.015337  0.000000
  -0.015337  0.005904  0.000000
  0.000000  0.000000  0.000000

  -0.022799  -0.008158  0.000000
  -0.008158  0.004284  0.000000
  0.000000  0.000000  0.000000

  -0.011130  -0.014370  0.000000
  -0.014370  0.005025  0.000000
  0.000000  0.000000  0.000000

  -0.019757  -0.007827  0.000000
  -0.007827  0.003568  0.000000
  0.000000  0.000000  0.000000

  -0.009572  -0.013269  0.000000
  -0.013269  0.004258  0.000000
  0.000000  0.000000  0.000000

  -0.016664  -0.007384  0.000000
  -0.007384  0.002888  0.000000
  0.000000  0.000000  0.000000

  -0.008038  -0.012032  0.000000
  -0.012032  0.003555  0.000000
  0.000000  0.000000  0.000000

  -0.013600  -0.006830  0.000000
  -0.006830  0.002229  0.000000
  0.000000  0.000000  0.000000

  -0.006543  -0.010685  0.000000
  -0.010685  0.002883  0.000000
  0.000000  0.000000  0.000000

  -0.010671  -0.006170  0.000000
  -0.006170  0.001593  0.000000
  0.000000  0.000000  0.000000

  -0.005116  -0.009264  0.000000
  -0.009264  0.002227  0.000000
  0.000000  0.000000  0.000000

  -0.007982  -0.005414  0.000000
  -0.005414  0.000996  0.000000
  0.000000  0.000000  0.000000

  -0.003794  -0.007806  0.000000
  -0.007806  0.001593  0.000000
  0.000000  0.000000  0.000000

  -0.005624  -0.004572  0.000000
  -0.004572  0.000464  0.000000
  0.000000  0.000000  0.000000

  -0.002614  -0.006343  0.000000
  -0.006343  0.000996  0.000000
  0.000000  0.000000  0.000000

  -0.003664  -0.003659  0.000000
  -0.003659  0.000029  0.000000
  0.000000  0.000000  0.000000

  -0.001613  -0.004902  0.000000
  -0.004902  0.000464  0.000000
  0.000000  0.000000  0.000000

  -0.002145  -0.002707  0.000000
  -0.002707  -0.000271  0.000000
  0.000000  0.000000  0.000000

  -0.000827  -0.003516  0.000000
  -0.003516  0.000029  0.000000
  0.000000  0.000000  0.000000

  -0.001079  -0.001775  0.000000
  -0.001775  -0.000404  0.000000
  0.000000  0.000000  0.000000

  -0.000290  -0.002236  0.000000
  -0.002236  -0.000271  0.000000
  0.000000  0.000000  0.000000

  -0.000437  -0.000957  0.000000
  -0.000957  -0.000357  0.000000
  0.000000  0.000000  0.000000

  -0.000019  -0.001142  0.000000
  -0.001142  -0.000404  0.000000
  0.000000  0.000000  0.000000

  -0.000130  -0.000367  0.000000
  -0.000367  -0.000183  0.000000
  0.000000  0.000000  0.000000

  0.000050  -0.000369  0.000000
  -0.000369  -0.000357  0.000000
  0.000000  0.000000  0.000000

  -0.000056  -0.000072  0.000000
  -0.000072  0.000123  0.000000
  0.000000  0.000000  0.000000

  -0.000005  0.000055  0.000000
  0.000055  -0.000183  0.000000
  0.000000  0.000000  0.000000

  -0.017202  -0.011256  0.000000
  -0.011256  0.000507  0.000000
  0.000000  0.000000  0.000000

  0.000285  -0.019759  0.000000
  -0.019759  0.000000  0.000000
  0.000000  0.000000  0.000000

  -0.019820  -0.013835  0.000000
  -0.013835  0.001909  0.000000
  0.000000  0.000000  0.000000

  0.000177  -0.023076  0.000000
  -0.023076  0.000502  0.000000
  0.000000  0.000000  0.000000

  -0.020871  -0.013070  0.000000
  -0.013070  0.002927  0.000000
  0.000000  0.000000  0.000000

  -0.000433  -0.022858  0.000000
  -0.022858  0.001902  0.000000
  0.000000  0.000000  0.000000

  -0.018273  -0.011719  0.000000
  -0.011719  0.002296  0.000000
  0.000000  0.000000  0.000000

  -0.000673  -0.020824  0.000000
  -0.020824  0.002922  0.000000
  0.000000  0.000000  0.000000

  -0.016213  -0.011131  0.000000
  -0.011131  0.001620  0.000000
  0.000000  0.000000  0.000000

  -0.000261  -0.019445  0.000000
  -0.019445  0.002303  0.000000
  0.000000  0.000000  0.000000

  -0.014393  -0.010809  0.000000
  -0.010809  0.001025  0.000000
  0.000000  0.000000  0.000000

  0.000101  -0.018354  0.000000
  -0.018354  0.001625  0.000000
  0.000000  0.000000  0.000000

  -0.012722  -0.010588  0.000000
  -0.010588  0.000541  0.000000
  0.000000  0.000000  0.000000

  0.000364  -0.017374  0.000000
  -0.017374  0.001028  0.000000
  0.000000  0.000000  0.000000

  -0.011128  -0.010347  0.000000
  -0.010347  0.000155  0.000000
  0.000000  0.000000  0.000000

  0.000534  -0.016371  0.000000
  -0.016371  0.000542  0.000000
  0.000000  0.000000  0.000000

  -0.009570  -0.010004  0.000000
  -0.010004  -0.000157  0.000000
  0.000000  0.000000  0.000000

  0.000632  -0.015261  0.000000
  -0.015261  0.000156  0.000000
  0.000000  0.000000  0.000000

  -0.008036  -0.009514  0.000000
  -0.009514  -0.000423  0.000000
  0.000000  0.000000  0.000000

  0.000683  -0.014006  0.000000
  -0.014006  -0.000157  0.000000
  0.000000  0.000000  0.000000

  -0.006542  -0.008859  0.000000
  -0.008859  -0.000665  0.000000
  0.000000  0.000000  0.000000

  0.000711  -0.012607  0.000000
  -0.012607  -0.000423  0.000000
  0.000000  0.000000  0.000000

  -0.005115  -0.008044  0.000000
  -0.008044  -0.000897  0.000000
  0.000000  0.000000  0.000000

  0.000735  -0.011085  0.000000
  -0.011085  -0.000665  0.000000
  0.000000  0.000000  0.000000

  -0.003794  -0.007083  0.000000
  -0.007083  -0.001122  0.000000
  0.000000  0.000000  0.000000

  0.000767  -0.009476  0.000000
  -0.009476  -0.000897  0.000000
  0.000000  0.000000  0.000000

  -0.002614  -0.005999  0.000000
  -0.005999  -0.001326  0.000000
  0.000000  0.000000  0.000000

  0.000816  -0.007816  0.000000
  -0.007816  -0.001122  0.000000
  0.000000  0.000000  0.000000

  -0.001613  -0.004817  0.000000
  -0.004817  -0.001478  0.000000
  0.000000  0.000000  0.000000

  0.000877  -0.006138  0.000000
  -0.006138  -0.001326  0.000000
  0.000000  0.000000  0.000000

  -0.000827  -0.003583  0.000000
  -0.003583  -0.001519  0.000000
  0.000000  0.000000  0.000000

  0.000922  -0.004477  0.000000
  -0.004477  -0.001478  0.000000
  0.000000  0.000000  0.000000

  -0.000290  -0.002371  0.000000
  -0.002371  -0.001377  0.000000
  0.000000  0.000000  0.000000

  0.000892  -0.002890  0.000000
  -0.002890  -0.001519  0.000000
  0.000000  0.000000  0.000000

  -0.000019  -0.001306  0.000000
  -0.001306  -0.000998  0.000000
  0.000000  0.000000  0.000000

  0.000711  -0.001482  0.000000
  -0.001482  -0.001377  0.000000
  0.000000  0.000000  0.000000

  0.000050  -0.000554  0.000000
  -0.000554  -0.000505  0.000000
  0.000000  0.000000  0.000000

  0.000425  -0.000495  0.000000
  -0.000495  -0.000998  0.000000
  0.000000  0.000000  0.000000

  -0.000006  -0.000162  0.000000
  -0.000162  0.000035  0.000000
  0.000000  0.000000  0.000000

  0.000109  0.000051  0.000000
  0.000051  -0.000505  0.000000
  0.000000  0.000000  0.000000

  0.000446  -0.010433  0.000000
  -0.010433  -0.003818  0.000000
  0.000000  0.000000  0.000000

  0.019096  -0.021681  0.000000
  -0.021681  0.000000  0.000000
  0.000000  0.000000  0.000000

  -0.000021  -0.012775  0.000000
  -0.012775  -0.004594  0.000000
  0.000000  0.000000  0.000000

  0.019515  -0.022980  0.000000
  -0.022980  -0.003677  0.000000
  0.000000  0.000000  0.000000

  -0.000540  -0.013016  0.000000
  -0.013016  -0.004308  0.000000
  0.000000  0.000000  0.000000

  0.018550  -0.022443  0.000000
  -0.022443  -0.004523  0.000000
  0.000000  0.000000  0.000000

  -0.000669  -0.012358  0.000000
  -0.012358  -0.004024  0.000000
  0.000000  0.000000  0.000000

  0.017222  -0.021176  0.000000
  -0.021176  -0.004290  0.000000
  0.000000  0.000000  0.000000

  -0.000255  -0.011664  0.000000
  -0.011664  -0.004000  0.000000
  0.000000  0.000000  0.000000

  0.015957  -0.019760  0.000000
  -0.019760  -0.004020  0.000000
  0.000000  0.000000  0.000000

  0.000106  -0.011204  0.000000
  -0.011204  -0.004027  0.000000
  0.000000  0.000000  0.000000

  0.014787  -0.018558  0.000000
  -0.018558  -0.003998  0.000000
  0.000000  0.000000  0.000000

  0.000369  -0.010867  0.000000
  -0.010867  -0.004034  0.000000
  0.000000  0.000000  0.000000

  0.013572  -0.017472  0.000000
  -0.017472  -0.004027  0.000000
  0.000000  0.000000  0.000000

  0.000538  -0.010544  0.000000
  -0.010544  -0.003993  0.000000
  0.000000  0.000000  0.000000

  0.012264  -0.016386  0.000000
  -0.016386  -0.004034  0.000000
  0.000000  0.000000  0.000000

  0.000635  -0.010150  0.000000
  -0.010150  -0.003901  0.000000
  0.000000  0.000000  0.000000

  0.010866  -0.015219  0.000000
  -0.015219  -0.003992  0.000000
  0.000000  0.000000  0.000000

  0.000686  -0.009633  0.000000
  -0.009633  -0.003771  0.000000
  0.000000  0.000000  0.000000

  0.009413  -0.013931  0.000000
  -0.013931  -0.003900  0.000000
  0.000000  0.000000  0.000000

  0.000713  -0.008970  0.000000
  -0.008970  -0.003623  0.000000
  0.000000  0.000000  0.000000

  0.007960  -0.012519  0.000000
  -0.012519  -0.003771  0.000000
  0.000000  0.000000  0.000000

  0.000736  -0.008158  0.000000
  -0.008158  -0.003479  0.000000
  0.000000  0.000000  0.000000

  0.006569  -0.011001  0.000000
  -0.011001  -0.003623  0.000000
  0.000000  0.000000  0.000000

  0.000768  -0.007210  0.000000
  -0.007210  -0.003352  0.000000
  0.000000  0.000000  0.000000

  0.005295  -0.009410  0.000000
  -0.009410  -0.003479  0.000000
  0.000000  0.000000  0.000000

  0.000816  -0.006145  0.000000
  -0.006145  -0.003245  0.000000
  0.000000  0.000000  0.000000

  0.004187  -0.007777  0.000000
  -0.007777  -0.003352  0.000000
  0.000000  0.000000  0.000000

  0.000877  -0.004981  0.000000
  -0.004981  -0.003136  0.000000
  0.000000  0.000000  0.000000

  0.003278  -0.006127  0.000000
  -0.006127  -0.003245  0.000000
  0.000000  0.000000  0.000000

  0.000922  -0.003740  0.000000
  -0.003740  -0.002944  0.000000
  0.000000  0.000000  0.000000

  0.002573  -0.004469  0.000000
  -0.004469  -0.003136  0.000000
  0.000000  0.000000  0.000000

  0.000892  -0.002477  0.000000
  -0.002477  -0.002541  0.000000
  0.000000  0.000000  0.000000

  0.001993  -0.002825  0.000000
  -0.002825  -0.002944  0.000000
  0.000000  0.000000  0.000000

  0.000711  -0.001322  0.000000
  -0.001322  -0.001785  0.000000
  0.000000  0.000000  0.000000

  0.001386  -0.001282  0.000000
  -0.001282  -0.002541  0.000000
  0.000000  0.000000  0.000000

  0.000425  -0.000507  0.000000
  -0.000507  -0.000896  0.000000
  0.000000  0.000000  0.000000

  0.000812  -0.000256  0.000000
  -0.000256  -0.001785  0.000000
  0.000000  0.000000  0.000000

  0.000109  -0.000108  0.000000
  -0.000108  -0.000041  0.000000
  0.000000  0.000000  0.000000

  0.000188  0.000279  0.000000
  0.000279  -0.000896  0.000000
  0.000000  0.000000  0.000000

  0.019170  -0.010448  0.000000
  -0.010448  -0.009412  0.000000
  0.000000  0.000000  0.000000

  0.041611  -0.026390  0.000000
  -0.026390  0.000000  0.000000
  0.000000  0.000000  0.000000

  0.019330  -0.011412  0.000000
  -0.011412  -0.011105  0.000000
  0.000000  0.000000  0.000000

  0.038918  -0.022392  0.000000
  -0.022392  -0.008805  0.000000
  0.000000  0.000000  0.000000

  0.018501  -0.011287  0.000000
  -0.011287  -0.010975  0.000000
  0.000000  0.000000  0.000000

  0.037103  -0.020611  0.000000
  -0.020611  -0.011037  0.000000
  0.000000  0.000000  0.000000

  0.017219  -0.010774  0.000000
  -0.010774  -0.010368  0.000000
  0.000000  0.000000  0.000000

  0.034665  -0.019233  0.000000
  -0.019233  -0.010992  0.000000
  0.000000  0.000000  0.000000

  0.015968  -0.010168  0.000000
  -0.010168  -0.009752  0.000000
  0.000000  0.000000  0.000000

  0.032162  -0.017976  0.000000
  -0.017976  -0.010393  0.000000
  0.000000  0.000000  0.000000

  0.014796  -0.009628  0.000000
  -0.009628  -0.009224  0.000000
  0.000000  0.000000  0.000000

  0.029632  -0.016789  0.000000
  -0.016789  -0.009770  0.000000
  0.000000  0.000000  0.000000

  0.013579  -0.009165  0.000000
  -0.009165  -0.008725  0.000000
  0.000000  0.000000  0.000000

  0.026989  -0.015622  0.000000
  -0.015622  -0.009233  0.000000
  0.000000  0.000000  0.000000

  0.012270  -0.008726  0.000000
  -0.008726  -0.008207  0.000000
  0.000000  0.000000  0.000000

  0.024168  -0.014417  0.000000
  -0.014417  -0.008728  0.000000
  0.000000  0.000000  0.000000

  0.010871  -0.008266  0.000000
  -0.008266  -0.007653  0.000000
  0.000000  0.000000  0.000000

  0.021180  -0.013143  0.000000
  -0.013143  -0.008208  0.000000
  0.000000  0.000000  0.000000

  0.009418  -0.007753  0.000000
  -0.007753  -0.007069  0.000000
  0.000000  0.000000  0.000000

  0.018099  -0.011801  0.000000
  -0.011801  -0.007653  0.000000
  0.000000  0.000000  0.000000

  0.007964  -0.007168  0.000000
  -0.007168  -0.006479  0.000000
  0.000000  0.000000  0.000000

  0.015035  -0.010408  0.000000
  -0.010408  -0.007069  0.000000
  0.000000  0.000000  0.000000

  0.006572  -0.006507  0.000000
  -0.006507  -0.005912  0.000000
  0.000000  0.000000  0.000000

  0.012104  -0.008989  0.000000
  -0.008989  -0.006479  0.000000
  0.000000  0.000000  0.000000

  0.005297  -0.005774  0.000000
  -0.005774  -0.005395  0.000000
  0.000000  0.000000  0.000000

  0.009413  -0.007573  0.000000
  -0.007573  -0.005912  0.000000
  0.000000  0.000000  0.000000

  0.004189  -0.004973  0.000000
  -0.004973  -0.004946  0.000000
  0.000000  0.000000  0.000000

  0.007051  -0.006179  0.000000
  -0.006179  -0.005395  0.000000
  0.000000  0.000000  0.000000

  0.003279  -0.004108  0.000000
  -0.004108  -0.004565  0.000000
  0.000000  0.000000  0.000000

  0.005079  -0.004817  0.000000
  -0.004817  -0.004946  0.000000
  0.000000  0.000000  0.000000

  0.002573  -0.003165  0.000000
  -0.003165  -0.004197  0.000000
  0.000000  0.000000  0.000000

  0.003544  -0.003467  0.000000
  -0.003467  -0.004565  0.000000
  0.000000  0.000000  0.000000

  0.001993  -0.002113  0.000000
  -0.002113  -0.003605  0.000000
  0.000000  0.000000  0.000000

  0.002461  -0.002051  0.000000
  -0.002051  -0.004196  0.000000
  0.000000  0.000000  0.000000

  0.001386  -0.001067  0.000000
  -0.001067  -0.002513  0.000000
  0.000000  0.000000  0.000000

  0.001490  -0.000573  0.000000
  -0.000573  -0.003605  0.000000
  0.000000  0.000000  0.000000

  0.000812  -0.000313  0.000000
  -0.000313  -0.001301  0.000000
  0.000000  0.000000  0.000000

  0.000945  0.000228  0.000000
  0.000228  -0.002513  0.000000
  0.000000  0.000000  0.000000

  0.000188  0.000101  0.000000
  0.000101  0.000186  0.000000
  0.000000  0.000000  0.000000

  0.000331  0.000773  0.000000
  0.000773  -0.001301  0.000000
  0.000000  0.000000  0.000000

  0.040866  -0.009303  0.000000
  -0.009303  -0.017179  0.000000
  0.000000  0.000000  0.000000

  0.109117  -0.043548  0.000000
  -0.043548  0.000000  0.000000
  0.000000  0.000000  0.000000

  0.039491  -0.009123  0.000000
  -0.009123  -0.019772  0.000000
  0.000000  0.000000  0.000000

  0.061185  -0.017778  0.000000
  -0.017778  -0.017776  0.000000
  0.000000  0.000000  0.000000

  0.037163  -0.008781  0.000000
  -0.008781  -0.018846  0.000000
  0.000000  0.000000  0.000000

  0.063248  -0.017515  0.000000
  -0.017515  -0.018998  0.000000
  0.000000  0.000000  0.000000

  0.034644  -0.008287  0.000000
  -0.008287  -0.017694  0.000000
  0.000000  0.000000  0.000000

  0.059251  -0.016624  0.000000
  -0.016624  -0.018375  0.000000
  0.000000  0.000000  0.000000

  0.032123  -0.007547  0.000000
  -0.007547  -0.016453  0.000000
  0.000000  0.000000  0.000000

  0.054649  -0.015487  0.000000
  -0.015487  -0.017335  0.000000
  0.000000  0.000000  0.000000

  0.029599  -0.006678  0.000000
  -0.006678  -0.015229  0.000000
  0.000000  0.000000  0.000000

  0.049634  -0.014064  0.000000
  -0.014064  -0.016200  0.000000
  0.000000  0.000000  0.000000

  0.026968  -0.005800  0.000000
  -0.005800  -0.014015  0.000000
  0.000000  0.000000  0.000000

  0.044274  -0.012427  0.000000