# vtk DataFile Version 2.0
SensitivityAnalysis
ASCII

DATASET UNSTRUCTURED_GRID
POINTS 147 double
  0.000000  0.300000  0.000000
  0.000000  0.250000  0.000000
  0.050000  0.300000  0.000000
  0.050000  0.250000  0.000000
  0.000000  0.200000  0.000000
  0.100000  0.300000  0.000000
  0.100000  0.250000  0.000000
  0.050000  0.200000  0.000000
  0.100000  0.200000  0.000000
  0.000000  0.150000  0.000000
  0.150000  0.300000  0.000000
  0.150000  0.250000  0.000000
  0.050000  0.150000  0.000000
  0.100000  0.150000  0.000000
  0.150000  0.200000  0.000000
  0.200000  0.300000  0.000000
  0.000000  0.100000  0.000000
  0.200000  0.250000  0.000000
  0.050000  0.100000  0.000000
  0.150000  0.150000  0.000000
  0.200000  0.200000  0.000000
  0.100000  0.100000  0.000000
  0.150000  0.100000  0.000000
  0.250000  0.300000  0.000000
  0.000000  0.050000  0.000000
  0.200000  0.150000  0.000000
  0.250000  0.250000  0.000000
  0.050000  0.050000  0.000000
  0.250000  0.200000  0.000000
  0.100000  0.050000  0.000000
  0.200000  0.100000  0.000000
  0.250000  0.150000  0.000000
  0.150000  0.050000  0.000000
  0.000000  0.000000  0.000000
  0.300000  0.300000  0.000000
  0.050000  0.000000  0.000000
  0.300000  0.250000  0.000000
  0.100000  0.000000  0.000000
  0.300000  0.200000  0.000000
  0.200000  0.050000  0.000000
  0.250000  0.100000  0.000000
  0.150000  0.000000  0.000000
  0.300000  0.150000  0.000000
  0.350000  0.300000  0.000000
  0.350000  0.250000  0.000000
  0.250000  0.050000  0.000000
  0.200000  0.000000  0.000000
  0.300000  0.100000  0.000000
  0.350000  0.200000  0.000000
  0.350000  0.150000  0.000000
  0.250000  0.000000  0.000000
  0.300000  0.050000  0.000000
  0.400000  0.300000  0.000000
  0.350000  0.100000  0.000000
  0.400000  0.250000  0.000000
  0.400000  0.200000  0.000000
  0.300000  0.000000  0.000000
  0.400000  0.150000  0.000000
  0.350000  0.050000  0.000000
  0.400000  0.100000  0.000000
  0.450000  0.300000  0.000000
  0.450000  0.250000  0.000000
  0.350000  0.000000  0.000000
  0.450000  0.200000  0.000000
  0.400000  0.050000  0.000000
  0.450000  0.150000  0.000000
  0.450000  0.100000  0.000000
  0.500000  0.300000  0.000000
  0.400000  0.000000  0.000000
  0.500000  0.250000  0.000000
  0.500000  0.200000  0.000000
  0.450000  0.050000  0.000000
  0.500000  0.150000  0.000000
  0.500000  0.100000  0.000000
  0.450000  0.000000  0.000000
  0.550000  0.300000  0.000000
  0.550000  0.250000  0.000000
  0.500000  0.050000  0.000000
  0.550000  0.200000  0.000000
  0.550000  0.150000  0.000000
  0.500000  0.000000  0.000000
  0.550000  0.100000  0.000000
  0.600000  0.300000  0.000000
  0.600000  0.250000  0.000000
  0.550000  0.050000  0.000000
  0.600000  0.200000  0.000000
  0.600000  0.150000  0.000000
  0.550000  0.000000  0.000000
  0.600000  0.100000  0.000000
  0.650000  0.300000  0.000000
  0.600000  0.050000  0.000000
  0.650000  0.250000  0.000000
  0.650000  0.200000  0.000000
  0.650000  0.150000  0.000000
  0.600000  0.000000  0.000000
  0.650000  0.100000  0.000000
  0.650000  0.050000  0.000000
  0.700000  0.300000  0.000000
  0.700000  0.250000  0.000000
  0.700000  0.200000  0.000000
  0.700000  0.150000  0.000000
  0.650000  0.000000  0.000000
  0.700000  0.100000  0.000000
  0.700000  0.050000  0.000000
  0.750000  0.300000  0.000000
  0.750000  0.250000  0.000000
  0.750000  0.200000  0.000000
  0.700000  0.000000  0.000000
  0.750000  0.150000  0.000000
  0.750000  0.100000  0.000000
  0.750000  0.050000  0.000000
  0.800000  0.300000  0.000000
  0.800000  0.250000  0.000000
  0.800000  0.200000  0.000000
  0.750000  0.000000  0.000000
  0.800000  0.150000  0.000000
  0.800000  0.100000  0.000000
  0.800000  0.050000  0.000000
  0.850000  0.300000  0.000000
  0.850000  0.250000  0.000000
  0.800000  0.000000  0.000000
  0.850000  0.200000  0.000000
  0.850000  0.150000  0.000000
  0.850000  0.100000  0.000000
  0.850000  0.050000  0.000000
  0.900000  0.300000  0.000000
  0.850000  0.000000  0.000000
  0.900000  0.250000  0.000000
  0.900000  0.200000  0.000000
  0.900000  0.150000  0.000000
  0.900000  0.100000  0.000000
  0.900000  0.050000  0.000000
  0.900000  0.000000  0.000000
  0.950000  0.300000  0.000000
  0.950000  0.250000  0.000000
  0.950000  0.200000  0.000000
  0.950000  0.150000  0.000000
  0.950000  0.100000  0.000000
  0.950000  0.050000  0.000000
  0.950000  0.000000  0.000000
  1.000000  0.300000  0.000000
  1.000000  0.250000  0.000000
  1.000000  0.200000  0.000000
  1.000000  0.150000  0.000000
  1.000000  0.100000  0.000000
  1.000000  0.050000  0.000000
  1.000000  0.000000  0.000000

CELLS  240  960
  3  35  27  33
  3  27  24  33
  3  37  29  35
  3  29  27  35
  3  41  32  37
  3  32  29  37
  3  46  39  41
  3  39  32  41
  3  50  45  46
  3  45  39  46
  3  56  51  50
  3  51  45  50
  3  62  58  56
  3  58  51  56
  3  68  64  62
  3  64  58  62
  3  74  71  68
  3  71  64  68
  3  80  77  74
  3  77  71  74
  3  87  84  80
  3  84  77  80
  3  94  90  87
  3  90  84  87
  3  101  96  94
  3  96  90  94
  3  107  103  101
  3  103  96  101
  3  114  110  107
  3  110  103  107
  3  120  117  114
  3  117  110  114
  3  126  124  120
  3  124  117  120
  3  132  131  126
  3  131  124  126
  3  139  138  132
  3  138  131  132
  3  146  145  139
  3  145  138  139
  3  27  18  24
  3  18  16  24
  3  29  21  27
  3  21  18  27
  3  32  22  29
  3  22  21  29
  3  39  30  32
  3  30  22  32
  3  45  40  39
  3  40  30  39
  3  51  47  45
  3  47  40  45
  3  58  53  51
  3  53  47  51
  3  64  59  58
  3  59  53  58
  3  71  66  64
  3  66  59  64
  3  77  73  71
  3  73  66  71
  3  84  81  77
  3  81  73  77
  3  90  88  84
  3  88  81  84
  3  96  95  90
  3  95  88  90
  3  103  102  96
  3  102  95  96
  3  110  109  103
  3  109  102  103
  3  117  116  110
  3  116  109  110
  3  124  123  117
  3  123  116  117
  3  131  130  124
  3  130  123  124
  3  138  137  131
  3  137  130  131
  3  145  144  138
  3  144  137  138
  3  18  12  16
  3  12  9  16
  3  21  13  18
  3  13  12  18
  3  22  19  21
  3  19  13  21
  3  30  25  22
  3  25  19  22
  3  40  31  30
  3  31  25  30
  3  47  42  40
  3  42  31  40
  3  53  49  47
  3  49  42  47
  3  59  57  53
  3  57  49  53
  3  66  65  59
  3  65  57  59
  3  73  72  66
  3  72  65  66
  3  81  79  73
  3  79  72  73
  3  88  86  81
  3  86  79  81
  3  95  93  88
  3  93  86  88
  3  102  100  95
  3  100  93  95
  3  109  108  102
  3  108  100  102
  3  116  115  109
  3  115  108  109
  3  123  122  116
  3  122  115  116
  3  130  129  123
  3  129  122  123
  3  137  136  130
  3  136  129  130
  3  144  143  137
  3  143  136  137
  3  12  7  9
  3  7  4  9
  3  13  8  12
  3  8  7  12
  3  19  14  13
  3  14  8  13
  3  25  20  19
  3  20  14  19
  3  31  28  25
  3  28  20  25
  3  42  38  31
  3  38  28  31
  3  49  48  42
  3  48  38  42
  3  57  55  49
  3  55  48  49
  3  65  63  57
  3  63  55  57
  3  72  70  65
  3  70  63  65
  3  79  78  72
  3  78  70  72
  3  86  85  79
  3  85  78  79
  3  93  92  86
  3  92  85  86
  3  100  99  93
  3  99  92  93
  3  108  106  100
  3  106  99  100
  3  115  113  108
  3  113  106  108
  3  122  121  115
  3  121  113  115
  3  129  128  122
  3  128  121  122
  3  136  135  129
  3  135  128  129
  3  143  142  136
  3  142  135  136
  3  7  3  4
  3  3  1  4
  3  8  6  7
  3  6  3  7
  3  14  11  8
  3  11  6  8
  3  20  17  14
  3  17  11  14
  3  28  26  20
  3  26  17  20
  3  38  36  28
  3  36  26  28
  3  48  44  38
  3  44  36  38
  3  55  54  48
  3  54  44  48
  3  63  61  55
  3  61  54  55
  3  70  69  63
  3  69  61  63
  3  78  76  70
  3  76  69  70
  3  85  83  78
  3  83  76  78
  3  92  91  85
  3  91  83  85
  3  99  98  92
  3  98  91  92
  3  106  105  99
  3  105  98  99
  3  113  112  106
  3  112  105  106
  3  121  119  113
  3  119  112  113
  3  128  127  121
  3  127  119  121
  3  135  134  128
  3  134  127  128
  3  142  141  135
  3  141  134  135
  3  3  2  1
  3  2  0  1
  3  6  5  3
  3  5  2  3
  3  11  10  6
  3  10  5  6
  3  17  15  11
  3  15  10  11
  3  26  23  17
  3  23  15  17
  3  36  34  26
  3  34  23  26
  3  44  43  36
  3  43  34  36
  3  54  52  44
  3  52  43  44
  3  61  60  54
  3  60  52  54
  3  69  67  61
  3  67  60  61
  3  76  75  69
  3  75  67  69
  3  83  82  76
  3  82  75  76
  3  91  89  83
  3  89  82  83
  3  98  97  91
  3  97  89  91
  3  105  104  98
  3  104  97  98
  3  112  111  105
  3  111  104  105
  3  119  118  112
  3  118  111  112
  3  127  125  119
  3  125  118  119
  3  134  133  127
  3  133  125  127
  3  141  140  134
  3  140  133  134

CELL_TYPES 240
5
5
5
5
5
5
5
5
5
5
5
5
5
5
5
5
5
5
5
5
5
5
5
5
5
5
5
5
5
5
5
5
5
5
5
5
5
5
5
5
5
5
5
5
5
5
5
5
5
5
5
5
5
5
5
5
5
5
5
5
5
5
5
5
5
5
5
5
5
5
5
5
5
5
5
5
5
5
5
5
5
5
5
5
5
5
5
5
5
5
5
5
5
5
5
5
5
5
5
5
5
5
5
5
5
5
5
5
5
5
5
5
5
5
5
5
5
5
5
5
5
5
5
5
5
5
5
5
5
5
5
5
5
5
5
5
5
5
5
5
5
5
5
5
5
5
5
5
5
5
5
5
5
5
5
5
5
5
5
5
5
5
5
5
5
5
5
5
5
5
5
5
5
5
5
5
5
5
5
5
5
5
5
5
5
5
5
5
5
5
5
5
5
5
5
5
5
5
5
5
5
5
5
5
5
5
5
5
5
5
5
5
5
5
5
5
5
5
5
5
5
5
5
5
5
5
5
5
5
5
5
5
5
5
5
5
5
5
5
5
POINT_DATA 147
VECTORS disp_sens_pert_x_6 double
  -0.104555  0.098615  0
  -0.003855  -0.011596  0
  -0.016893  0.011532  0
  0.004179  -0.002567  0
  0.000266  -0.002600  0
  0.118495  -0.132524  0
  -0.008370  0.010502  0
  0.002646  -0.003104  0
  -0.001702  0.005233  0
  0.002379  -0.000209  0
  0.004584  -0.003601  0
  -0.002610  -0.001853  0
  0.001525  -0.001406  0
  -0.000155  0.002097  0
  -0.001682  0.000244  0
  0.001844  -0.000142  0
  0.001183  0.002332  0
  -0.000282  -0.000964  0
  0.000597  -0.000515  0
  -0.000793  0.000615  0
  -0.000719  -0.000349  0
  0.000011  0.000882  0
  -0.000410  0.000521  0
  0.000625  0.000186  0
  -0.004850  0.008688  0
  -0.000570  0.000004  0
  0.000178  -0.000357  0
  -0.000213  0.000191  0
  -0.000214  -0.000249  0
  -0.000249  0.000807  0
  -0.000378  0.000109  0
  -0.000285  -0.000107  0
  -0.000291  0.000273  0
  -0.021329  0.036915  0
  0.000183  0.000138  0
  0.001803  -0.000957  0
  0.000173  -0.000100  0
  0.001726  -0.000167  0
  -0.000030  -0.000120  0
  -0.000223  -0.000025  0
  -0.000233  -0.000039  0
  0.001025  0.000438  0
  -0.000117  -0.000085  0
  0.000041  0.000070  0
  0.000101  -0.000012  0
  -0.000127  -0.000101  0
  0.000491  0.000468  0
  -0.000118  -0.000061  0
  0.000016  -0.000046  0
  -0.000039  -0.000049  0
  0.000191  0.000322  0
  -0.000057  -0.000087  0
  0.000002  0.000030  0
  -0.000051  -0.000046  0
  0.000047  0.000010  0
  0.000019  -0.000013  0
  0.000055  0.000182  0
  -0.000009  -0.000023  0
  -0.000020  -0.000055  0
  -0.000019  -0.000027  0
  -0.000005  0.000011  0
  0.000019  0.000010  0
  0.000005  0.000089  0
  0.000012  -0.000001  0
  -0.000004  -0.000029  0
  -0.000000  -0.000010  0
  -0.000006  -0.000014  0
  -0.000004  0.000003  0
  -0.000008  0.000039  0
  0.000006  0.000006  0
  0.000006  0.000002  0
  0.000001  -0.000014  0
  0.000002  -0.000003  0
  -0.000001  -0.000006  0
  -0.000008  0.000015  0
  -0.000002  0.000001  0
  0.000002  0.000003  0
  0.000002  -0.000006  0
  0.000002  0.000002  0
  0.000001  -0.000001  0
  -0.000005  0.000005  0
  0.000000  -0.000003  0
  -0.000001  -0.000000  0
  0.000000  0.000001  0
  0.000001  -0.000002  0
  0.000001  0.000001  0
  0.000001  -0.000000  0
  -0.000003  0.000001  0
  0.000000  -0.000001  0
  -0.000000  -0.000000  0
  0.000001  -0.000001  0
  -0.000000  0.000000  0
  0.000000  0.000000  0
  0.000000  0.000000  0
  -0.000001  0.000000  0
  0.000000  -0.000000  0
  0.000000  -0.000000  0
  -0.000000  -0.000000  0
  -0.000000  0.000000  0
  0.000000  0.000000  0
  0.000000  0.000000  0
  -0.000001  -0.000000  0
  0.000000  -0.000000  0
  0.000000  -0.000000  0
  -0.000000  -0.000000  0
  -0.000000  0.000000  0
  -0.000000  0.000000  0
  -0.000000  -0.000000  0
  0.000000  0.000000  0
  0.000000  0.000000  0
  0.000000  0.000000  0
  -0.000000  0.000000  0
  -0.000000  -0.000000  0
  -0.000000  0.000000  0
  -0.000000  -0.000000  0
  -0.000000  0.000000  0
  0.000000  0.000000  0
  0.000000  0.000000  0
  -0.000000  0.000000  0
  0.000000  -0.000000  0
  -0.000000  -0.000000  0
  -0.000000  0.000000  0
  -0.000000  0.000000  0
  0.000000  0.000000  0
  0.000000  0.000000  0
  -0.000000  0.000000  0
  0.000000  -0.000000  0
  0.000000  -0.000000  0
  -0.000000  -0.000000  0
  -0.000000  0.000000  0
  -0.000000  0.000000  0
  0.000000  0.000000  0
  0.000000  0.000000  0
  -0.000000  0.000000  0
  0.000000  0.000000  0
  -0.000000  -0.000000  0
  -0.000000  -0.000000  0
  -0.000000  -0.000000  0
  0.000000  0.000000  0
  0.000000  0.000000  0
  0.027050  -0.017342  0
  -0.000000  0.000000  0
  0.000000  0.000000  0
  0.000000  0.000000  0
  0.000000  0.000000  0
  0.000000  0.000000  0
  0.000000  0.000000  0
VECTORS disp_sens_pert_x_14 double
  -0.015671  0.062914  0
  -0.007534  0.002433  0
  0.000926  0.001935  0
  0.000578  0.000354  0
  -0.007693  0.003734  0
  0.000689  -0.002074  0
  0.000852  -0.001238  0
  0.000793  0.001250  0
  0.004114  -0.004687  0
  -0.003010  0.001965  0
  -0.000101  -0.000488  0
  -0.000152  0.001695  0
  -0.007583  0.004187  0
  -0.000571  -0.123838  0
  -0.001605  0.002162  0
  -0.000094  -0.000344  0
  0.010784  0.003799  0
  -0.000159  0.000382  0
  0.002286  -0.001553  0
  0.004350  -0.003244  0
  -0.000897  0.000592  0
  -0.004209  0.004118  0
  -0.000980  -0.000994  0
  -0.000085  -0.000194  0
  0.011004  0.011699  0
  0.001855  -0.000469  0
  -0.000175  0.000038  0
  0.000059  -0.000762  0
  -0.000360  0.000273  0
  -0.000835  0.002273  0
  0.000104  -0.000514  0
  0.000698  -0.000037  0
  -0.000580  -0.000216  0
  0.012371  0.043751  0
  -0.000040  -0.000081  0
  0.001706  -0.000689  0
  -0.000120  -0.000014  0
  0.000067  0.002116  0
  -0.000156  0.000112  0
  -0.000143  -0.000391  0
  0.000220  -0.000199  0
  -0.000483  0.001210  0
  0.000248  0.000022  0
  -0.000010  -0.000028  0
  -0.000069  -0.000012  0
  0.000017  -0.000228  0
  -0.000415  0.000548  0
  0.000146  -0.000073  0
  -0.000073  0.000042  0
  0.000082  0.000018  0
  -0.000238  0.000226  0
  0.000040  -0.000106  0
  0.000001  -0.000009  0
  0.000075  -0.000026  0
  -0.000034  -0.000006  0
  -0.000036  0.000015  0
  -0.000110  0.000087  0
  0.000024  0.000010  0
  0.000027  -0.000044  0
  0.000033  -0.000009  0
  0.000003  -0.000003  0
  -0.000015  -0.000003  0
  -0.000041  0.000031  0
  -0.000017  0.000005  0
  0.000013  -0.000017  0
  0.000005  0.000004  0
  0.000013  -0.000003  0
  0.000003  -0.000001  0
  -0.000012  0.000010  0
  -0.000006  -0.000001  0
  -0.000008  0.000002  0
  0.000005  -0.000006  0
  0.000000  0.000002  0
  0.000004  -0.000001  0
  -0.000001  0.000003  0
  0.000001  -0.000000  0
  -0.000002  -0.000000  0
  0.000001  -0.000002  0
  -0.000003  0.000001  0
  -0.000001  0.000001  0
  0.000001  0.000001  0
  0.000001  -0.000000  0
  0.000001  -0.000000  0
  -0.000000  -0.000000  0
  0.000000  -0.000001  0
  -0.000001  0.000000  0
  -0.000001  0.000000  0
  0.000001  0.000000  0
  0.000000  0.000000  0
  0.000000  -0.000000  0
  -0.000000  -0.000000  0
  -0.000000  -0.000000  0
  -0.000000  0.000000  0
  -0.000000  0.000000  0
  0.000001  -0.000000  0
  -0.000000  0.000000  0
  -0.000000  -0.000000  0
  0.000000  -0.000000  0
  0.000000  -0.000000  0
  -0.000000  0.000000  0
  -0.000000  0.000000  0
  0.000000  -0.000000  0
  -0.000000  0.000000  0
  -0.000000  -0.000000  0
  0.000000  -0.000000  0
  0.000000  -0.000000  0
  -0.000000  -0.000000  0
  0.000000  -0.000000  0
  -0.000000  0.000000  0
  -0.000000  0.000000  0
  -0.000000  0.000000  0
  0.000000  -0.000000  0
  0.000000  -0.000000  0
  0.000000  -0.000000  0
  0.000000  -0.000000  0
  -0.000000  0.000000  0
  -0.000000  0.000000  0
  -0.000000  0.000000  0
  -0.000000  -0.000000  0
  0.000000  -0.000000  0
  0.000000  -0.000000  0
  0.000000  -0.000000  0
  0.000000  -0.000000  0
  -0.000000  0.000000  0
  -0.000000  0.000000  0
  0.000000  -0.000000  0
  0.000000  -0.000000  0
  -0.000000  0.000000  0
  0.000000  -0.000000  0
  0.000000  -0.000000  0
  -0.000000  0.000000  0
  -0.000000  0.000000  0
  -0.000000  0.000000  0
  0.000000  -0.000000  0
  -0.000000  0.000000  0
  0.000000  -0.000000  0
  0.000000  -0.000000  0
  0.000000  -0.000000  0
  -0.000000  0.000000  0
  -0.000000  0.000000  0
  0.000125  -0.011419  0
  -0.000000  0.000000  0
  -0.000000  0.000000  0
  -0.000000  0.000000  0
  -0.000000  0.000000  0
  -0.000000  0.000000  0
  -0.000000  0.000000  0
VECTORS disp_sens_pert_x_38 double
  0.031007  0.056153  0
  -0.000815  0.001381  0
  0.004258  0.002854  0
  0.000659  -0.000234  0
  -0.002843  0.002178  0
  0.001325  -0.000229  0
  0.000403  0.000353  0
  0.000432  -0.000989  0
  0.000227  -0.000858  0
  -0.002014  0.002238  0
  0.000479  -0.000403  0
  0.000226  0.000737  0
  0.000900  -0.000525  0
  0.000576  -0.002176  0
  -0.000107  0.000672  0
  0.000172  -0.000349  0
  0.004681  0.003514  0
  0.000285  0.000457  0
  0.001617  0.000842  0
  -0.000426  0.000982  0
  0.000159  0.000552  0
  0.001917  -0.004928  0
  -0.000917  0.002222  0
  0.000038  -0.000232  0
  0.026811  0.009431  0
  0.000053  0.000715  0
  0.000237  0.000213  0
  0.002374  0.005256  0
  0.000190  0.000303  0
  0.008049  -0.011935  0
  -0.000328  0.000856  0
  0.000086  0.000325  0
  -0.003290  0.003844  0
  0.075996  0.062700  0
  -0.000011  -0.000133  0
  -0.007212  0.002869  0
  0.000150  0.000064  0
  -0.119528  -0.116303  0
  0.000130  0.000124  0
  -0.002180  0.000578  0
  -0.000238  0.000266  0
  0.003276  -0.004127  0
  0.000051  0.000132  0
  -0.000022  -0.000067  0
  0.000077  0.000001  0
  -0.000831  0.000443  0
  0.001455  -0.001515  0
  -0.000107  0.000140  0
  0.000073  0.000039  0
  0.000032  0.000057  0
  0.000480  -0.000756  0
  -0.000288  0.000264  0
  -0.000018  -0.000029  0
  -0.000037  0.000080  0
  0.000033  -0.000016  0
  0.000036  0.000007  0
  0.000123  -0.000363  0
  0.000019  0.000024  0
  -0.000090  0.000135  0
  -0.000008  0.000042  0
  -0.000011  -0.000011  0
  0.000011  -0.000014  0
  0.000012  -0.000162  0
  0.000016  -0.000003  0
  -0.000022  0.000063  0
  0.000011  0.000009  0
  0.000001  0.000020  0
  -0.000006  -0.000003  0
  -0.000012  -0.000066  0
  0.000003  -0.000008  0
  0.000007  -0.000004  0
  -0.000003  0.000027  0
  0.000006  0.000003  0
  0.000002  0.000009  0
  -0.000012  -0.000024  0
  -0.000002  -0.000000  0
  0.000000  -0.000004  0
  0.000002  0.000011  0
  0.000002  -0.000003  0
  0.000003  0.000000  0
  -0.000007  -0.000008  0
  0.000002  0.000003  0
  -0.000001  0.000000  0
  -0.000000  -0.000002  0
  0.000002  0.000004  0
  0.000001  -0.000001  0
  0.000001  -0.000000  0
  -0.000004  -0.000002  0
  0.000001  0.000001  0
  -0.000000  0.000000  0
  0.000001  0.000001  0
  -0.000000  -0.000001  0
  0.000000  -0.000001  0
  0.000000  -0.000000  0
  -0.000002  -0.000000  0
  0.000001  0.000000  0
  0.000000  0.000000  0
  -0.000000  0.000000  0
  -0.000000  -0.000000  0
  -0.000000  -0.000000  0
  0.000000  -0.000000  0
  -0.000001  0.000000  0
  0.000000  0.000000  0
  0.000000  0.000000  0
  -0.000000  0.000000  0
  -0.000000  -0.000000  0
  -0.000000  -0.000000  0
  -0.000000  0.000000  0
  0.000000  -0.000000  0
  0.000000  -0.000000  0
  0.000000  -0.000000  0
  -0.000000  -0.000000  0
  -0.000000  0.000000  0
  -0.000000  -0.000000  0
  -0.000000  0.000000  0
  -0.000000  -0.000000  0
  0.000000  -0.000000  0
  0.000000  -0.000000  0
  -0.000000  -0.000000  0
  0.000000  0.000000  0
  0.000000  0.000000  0
  -0.000000  -0.000000  0
  -0.000000  -0.000000  0
  0.000000  -0.000000  0
  0.000000  -0.000000  0
  -0.000000  -0.000000  0
  0.000000  0.000000  0
  0.000000  0.000000  0
  -0.000000  0.000000  0
  -0.000000  -0.000000  0
  -0.000000  -0.000000  0
  0.000000  -0.000000  0
  0.000000  -0.000000  0
  -0.000000  0.000000  0
  0.000000  -0.000000  0
  -0.000000  0.000000  0
  -0.000000  0.000000  0
  -0.000000  0.000000  0
  0.000000  -0.000000  0
  0.000000  -0.000000  0
  -0.027780  -0.017716  0
  -0.000000  -0.000000  0
  -0.000000  -0.000000  0
  -0.000000  -0.000000  0
  -0.000000  -0.000000  0
  0.000000  -0.000000  0
  -0.000000  -0.000000  0
VECTORS disp_sens_pert_x_68 double
  -0.089539  0.239002  0
  -0.016412  0.018812  0
  -0.009440  0.026144  0
  -0.001999  0.003214  0
  -0.002719  -0.002662  0
  -0.003377  0.008938  0
  -0.001138  0.002815  0
  0.000333  -0.001639  0
  -0.000323  0.000685  0
  0.004604  -0.008434  0
  -0.002458  0.005355  0
  -0.000648  0.001927  0
  0.000805  -0.001740  0
  0.000057  0.000121  0
  -0.000386  0.001203  0
  -0.002078  0.003653  0
  0.004013  0.008245  0
  -0.000425  0.001387  0
  0.000800  -0.000956  0
  -0.000241  0.000960  0
  -0.000341  0.001197  0
  0.000078  0.000601  0
  -0.000216  0.001175  0
  -0.001824  0.002546  0
  -0.006141  0.058788  0
  -0.000307  0.001122  0
  -0.000287  0.001013  0
  0.000279  0.001237  0
  -0.000261  0.001017  0
  0.000079  0.001416  0
  -0.000301  0.001177  0
  -0.000293  0.001004  0
  -0.000119  0.001244  0
  -0.024585  0.170989  0
  -0.001646  0.001756  0
  0.002680  -0.007048  0
  -0.000139  0.000717  0
  0.003345  -0.009667  0
  -0.000160  0.000813  0
  -0.000250  0.001184  0
  -0.000335  0.001014  0
  0.003231  -0.008326  0
  -0.000261  0.000800  0
  -0.001577  0.001195  0
  0.000095  0.000498  0
  -0.000338  0.001058  0
  0.002967  -0.006726  0
  -0.000350  0.000776  0
  -0.000045  0.000638  0
  -0.000236  0.000545  0
  0.002654  -0.005157  0
  -0.000393  0.000838  0
  -0.001682  0.000797  0
  -0.000335  0.000494  0
  0.000504  0.000452  0
  0.000024  0.000403  0
  0.002324  -0.003722  0
  -0.000190  0.000240  0
  -0.000403  0.000561  0
  -0.000250  0.000234  0
  -0.002000  0.000545  0
  0.001054  0.000613  0
  0.001978  -0.002469  0
  0.000038  -0.000104  0
  -0.000345  0.000289  0
  -0.000001  0.000025  0
  -0.000089  0.000088  0
  0.036895  -0.302778  0
  0.001605  -0.001423  0
  -0.002007  0.001378  0
  -0.000593  0.001273  0
  -0.000224  0.000092  0
  -0.000284  0.000814  0
  -0.000186  0.000446  0
  0.001200  -0.000607  0
  0.001062  -0.000584  0
  -0.000449  -0.000458  0
  -0.000192  0.000153  0
  -0.000410  0.000003  0
  -0.000294  0.000181  0
  0.000729  0.000015  0
  -0.000202  0.000169  0
  0.000347  -0.000032  0
  0.000013  -0.000202  0
  -0.000151  0.000040  0
  -0.000130  -0.000107  0
  -0.000154  -0.000008  0
  0.000353  0.000175  0
  -0.000130  0.000026  0
  0.000094  0.000023  0
  -0.000090  -0.000020  0
  0.000058  -0.000056  0
  -0.000018  -0.000060  0
  -0.000058  -0.000030  0
  0.000138  0.000142  0
  -0.000063  -0.000012  0
  -0.000043  -0.000028  0
  0.000021  0.000013  0
  0.000031  -0.000008  0
  0.000009  -0.000023  0
  -0.000015  -0.000019  0
  0.000042  0.000080  0
  -0.000025  -0.000013  0
  -0.000017  -0.000019  0
  0.000004  0.000004  0
  0.000010  0.000003  0
  0.000009  -0.000006  0
  0.000008  0.000036  0
  -0.000001  -0.000008  0
  -0.000008  -0.000008  0
  -0.000006  -0.000009  0
  0.000001  0.000000  0
  0.000002  0.000002  0
  0.000005  -0.000000  0
  -0.000001  0.000013  0
  0.000002  -0.000002  0
  -0.000002  -0.000003  0
  -0.000002  -0.000004  0
  0.000001  -0.000000  0
  -0.000001  0.000001  0
  -0.000002  0.000004  0
  0.000002  0.000001  0
  0.000001  -0.000000  0
  -0.000000  -0.000001  0
  -0.000001  -0.000001  0
  0.000000  -0.000000  0
  -0.000001  0.000000  0
  -0.000001  -0.000000  0
  0.000000  0.000000  0
  0.000001  0.000000  0
  0.000000  -0.000000  0
  -0.000000  -0.000000  0
  -0.000000  -0.000000  0
  0.000000  0.000000  0
  -0.000000  -0.000000  0
  0.000000  0.000000  0
  0.000000  0.000000  0
  0.000000  0.000000  0
  -0.000000  -0.000000  0
  0.000000  -0.000000  0
  0.108053  -0.223458  0
  0.000001  -0.000001  0
  0.000002  -0.000003  0
  0.000001  -0.000002  0
  0.000000  -0.000001  0
  0.000000  -0.000000  0
  0.000000  -0.000000  0
VECTORS disp_sens_pert_x_73 double
  -0.026261  0.239051  0
  -0.008544  0.018815  0
  -0.001328  0.026131  0
  -0.000692  0.003232  0
  -0.004220  -0.002644  0
  0.000003  0.008911  0
  -0.000309  0.002844  0
  -0.000164  -0.001615  0
  -0.000198  0.000720  0
  0.000622  -0.008445  0
  0.000081  0.005298  0
  -0.000116  0.001976  0
  -0.000018  -0.001734  0
  -0.000094  0.000133  0
  -0.000137  0.001258  0
  0.000074  0.003545  0
  0.005887  0.008227  0
  -0.000042  0.001471  0
  0.000055  -0.000972  0
  -0.000095  0.000983  0
  -0.000109  0.001279  0
  -0.000021  0.000585  0
  -0.000010  0.001164  0
  0.000080  0.002354  0
  0.012488  0.058794  0
  -0.000105  0.001160  0
  -0.000018  0.001150  0
  0.000129  0.001210  0
  -0.000118  0.001131  0
  -0.000026  0.001385  0
  0.000024  0.001174  0
  -0.000163  0.001062  0
  -0.000017  0.001215  0
  0.021377  0.170922  0
  0.000113  0.001438  0
  0.000828  -0.007045  0
  -0.000005  0.000920  0
  0.000292  -0.009673  0
  -0.000142  0.000959  0
  0.000039  0.001177  0
  0.000066  0.001025  0
  0.000159  -0.008349  0
  -0.000302  0.000898  0
  0.000166  0.000710  0
  0.000028  0.000743  0
  0.000101  0.001106  0
  0.000080  -0.006773  0
  0.000123  0.000806  0
  -0.000139  0.000818  0
  -0.000579  0.000767  0
  0.000050  -0.005233  0
  0.000145  0.000971  0
  0.000215  0.000128  0
  0.000228  0.000541  0
  0.000111  0.000579  0
  -0.000014  0.000723  0
  0.000062  -0.003822  0
  -0.001086  0.000821  0
  0.000140  0.000751  0
  0.000446  0.000256  0
  0.000210  -0.000316  0
  0.000237  0.000317  0
  0.000094  -0.002579  0
  0.000430  0.000572  0
  0.000036  0.000312  0
  -0.001801  0.001817  0
  0.000451  -0.000614  0
  0.000100  -0.000533  0
  0.000135  -0.001519  0
  0.000243  -0.000307  0
  0.001201  -0.001440  0
  0.000057  -0.000352  0
  0.000666  -0.304646  0
  -0.001118  0.001784  0
  0.000192  -0.000614  0
  -0.000040  -0.000146  0
  -0.000057  0.000338  0
  -0.000265  0.000655  0
  -0.000403  0.000702  0
  0.001267  -0.001026  0
  -0.000191  0.000798  0
  -0.000161  -0.000346  0
  -0.000033  -0.000078  0
  -0.000062  0.000050  0
  -0.000119  -0.000130  0
  -0.000225  0.000157  0
  0.000481  -0.000105  0
  -0.000257  0.000385  0
  0.000089  -0.000135  0
  -0.000023  -0.000034  0
  0.000003  -0.000122  0
  -0.000045  -0.000005  0
  -0.000088  0.000055  0
  0.000152  0.000001  0
  -0.000155  0.000142  0
  0.000076  -0.000040  0
  0.000026  -0.000056  0
  -0.000009  -0.000009  0
  -0.000022  -0.000007  0
  -0.000036  0.000017  0
  0.000041  0.000008  0
  -0.000069  0.000047  0
  0.000037  -0.000010  0
  0.000018  -0.000021  0
  -0.000003  -0.000001  0
  -0.000008  -0.000003  0
  -0.000015  0.000004  0
  -0.000024  0.000014  0
  0.000008  0.000004  0
  0.000014  -0.000002  0
  0.000008  -0.000007  0
  -0.000001  0.000000  0
  -0.000001  -0.000001  0
  -0.000006  0.000001  0
  -0.000006  0.000004  0
  -0.000000  0.000002  0
  0.000004  -0.000000  0
  0.000003  -0.000002  0
  -0.000001  0.000000  0
  0.000001  -0.000000  0
  -0.000000  0.000001  0
  -0.000002  -0.000000  0
  -0.000001  0.000001  0
  0.000001  0.000000  0
  0.000001  -0.000000  0
  -0.000000  0.000000  0
  0.000000  0.000000  0
  0.000001  0.000000  0
  -0.000001  -0.000000  0
  -0.000001  0.000000  0
  -0.000000  0.000000  0
  0.000000  -0.000000  0
  0.000000  -0.000000  0
  -0.000000  0.000000  0
  0.000000  0.000000  0
  0.000000  -0.000000  0
  -0.000000  -0.000000  0
  -0.000000  0.000000  0
  0.000000  0.000000  0
  0.000000  -0.000000  0
  -0.000174  -0.219990  0
  -0.000001  0.000000  0
  -0.000001  0.000000  0
  0.000000  0.000000  0
  0.000000  0.000000  0
  0.000000  -0.000000  0
  -0.000000  -0.000000  0
VECTORS disp_sens_pert_x_81 double
  0.037357  0.239074  0
  -0.000762  0.018809  0
  0.006860  0.026122  0
  0.000603  0.003237  0
  -0.005772  -0.002627  0
  0.003430  0.008896  0
  0.000522  0.002850  0
  -0.000660  -0.001600  0
  -0.000036  0.000739  0
  -0.003387  -0.008445  0
  0.002645  0.005272  0
  0.000439  0.001984  0
  -0.000867  -0.001722  0
  -0.000254  0.000154  0
  0.000211  0.001281  0
  0.002201  0.003503  0
  0.007797  0.008208  0
  0.000402  0.001479  0
  -0.000754  -0.000975  0
  0.000089  0.001020  0
  0.000323  0.001301  0
  -0.000228  0.000591  0
  0.000037  0.001192  0
  0.001847  0.002295  0
  0.031146  0.058798  0
  0.000242  0.001217  0
  0.000380  0.001149  0
  -0.000072  0.001187  0
  0.000374  0.001138  0
  -0.000253  0.001357  0
  0.000127  0.001245  0
  0.000321  0.001138  0
  -0.000150  0.001185  0
  0.067065  0.170888  0
  0.001519  0.001370  0
  -0.000957  -0.007049  0
  0.000362  0.000894  0
  -0.002666  -0.009689  0
  0.000407  0.000917  0
  -0.000069  0.001160  0
  0.000185  0.001173  0
  -0.002799  -0.008392  0
  0.000397  0.000968  0
  0.001193  0.000660  0
  0.000345  0.000669  0
  -0.000053  0.001146  0
  -0.002705  -0.006867  0
  0.000271  0.001074  0
  0.000430  0.000671  0
  0.000488  0.000743  0
  -0.002545  -0.005414  0
  -0.000058  0.001156  0
  0.000863  0.000157  0
  0.000436  0.000950  0
  0.000317  0.000455  0
  0.000423  0.000393  0
  -0.002439  -0.004118  0
  0.000573  0.000428  0
  0.000030  0.001251  0
  0.000714  0.000717  0
  0.000544  -0.000131  0
  0.000259  0.000254  0
  -0.002519  -0.002951  0
  0.000342  0.000093  0
  0.000452  0.001449  0
  0.000555  -0.000058  0
  0.001013  0.000057  0
  0.000277  -0.000201  0
  -0.002937  -0.001656  0
  0.000169  0.000124  0
  0.000156  -0.000103  0
  0.001637  0.001385  0
  0.000243  -0.000681  0
  0.000679  -0.002057  0
  -0.003573  0.001172  0
  0.000109  -0.000124  0
  0.000096  0.000152  0
  0.002809  -0.005000  0
  0.000007  0.000251  0
  -0.000134  0.000426  0
  -0.037343  -0.297633  0
  -0.000338  0.000833  0
  0.000040  -0.000070  0
  0.000077  0.000070  0
  -0.000811  0.001519  0
  0.000058  0.000160  0
  0.000029  0.000256  0
  0.000876  -0.001436  0
  -0.000051  0.000327  0
  0.000012  -0.000034  0