# vtk DataFile Version 2.0
SensitivityAnalysis
ASCII

DATASET UNSTRUCTURED_GRID
POINTS 147 double
  0.000000  0.300000  0.000000
  0.000000  0.250000  0.000000
  0.050000  0.300000  0.000000
  0.050000  0.250000  0.000000
  0.000000  0.200000  0.000000
  0.100000  0.300000  0.000000
  0.100000  0.250000  0.000000
  0.050000  0.200000  0.000000
  0.100000  0.200000  0.000000
  0.000000  0.150000  0.000000
  0.150000  0.300000  0.000000
  0.150000  0.250000  0.000000
  0.050000  0.150000  0.000000
  0.100000  0.150000  0.000000
  0.150000  0.200000  0.000000
  0.200000  0.300000  0.000000
  0.000000  0.100000  0.000000
  0.200000  0.250000  0.000000
  0.050000  0.100000  0.000000
  0.150000  0.150000  0.000000
  0.200000  0.200000  0.000000
  0.100000  0.100000  0.000000
  0.150000  0.100000  0.000000
  0.250000  0.300000  0.000000
  0.000000  0.050000  0.000000
  0.200000  0.150000  0.000000
  0.250000  0.250000  0.000000
  0.050000  0.050000  0.000000
  0.250000  0.200000  0.000000
  0.100000  0.050000  0.000000
  0.200000  0.100000  0.000000
  0.250000  0.150000  0.000000
  0.150000  0.050000  0.000000
  0.000000  0.000000  0.000000
  0.300000  0.300000  0.000000
  0.050000  0.000000  0.000000
  0.300000  0.250000  0.000000
  0.100000  0.000000  0.000000
  0.300000  0.200000  0.000000
  0.200000  0.050000  0.000000
  0.250000  0.100000  0.000000
  0.150000  0.000000  0.000000
  0.300000  0.150000  0.000000
  0.350000  0.300000  0.000000
  0.350000  0.250000  0.000000
  0.250000  0.050000  0.000000
  0.200000  0.000000  0.000000
  0.300000  0.100000  0.000000
  0.350000  0.200000  0.000000
  0.350000  0.150000  0.000000
  0.250000  0.000000  0.000000
  0.300000  0.050000  0.000000
  0.400000  0.300000  0.000000
  0.350000  0.100000  0.000000
  0.400000  0.250000  0.000000
  0.400000  0.200000  0.000000
  0.300000  0.000000  0.000000
  0.400000  0.150000  0.000000
  0.350000  0.050000  0.000000
  0.400000  0.100000  0.000000
  0.450000  0.300000  0.000000
  0.450000  0.250000  0.000000
  0.350000  0.000000  0.000000
  0.450000  0.200000  0.000000
  0.400000  0.050000  0.000000
  0.450000  0.150000  0.000000
  0.450000  0.100000  0.000000
  0.500000  0.300000  0.000000
  0.400000  0.000000  0.000000
  0.500000  0.250000  0.000000
  0.500000  0.200000  0.000000
  0.450000  0.050000  0.000000
  0.500000  0.150000  0.000000
  0.500000  0.100000  0.000000
  0.450000  0.000000  0.000000
  0.550000  0.300000  0.000000
  0.550000  0.250000  0.000000
  0.500000  0.050000  0.000000
  0.550000  0.200000  0.000000
  0.550000  0.150000  0.000000
  0.500000  0.000000  0.000000
  0.550000  0.100000  0.000000
  0.600000  0.300000  0.000000
  0.600000  0.250000  0.000000
  0.550000  0.050000  0.000000
  0.600000  0.200000  0.000000
  0.600000  0.150000  0.000000
  0.550000  0.000000  0.000000
  0.600000  0.100000  0.000000
  0.650000  0.300000  0.000000
  0.600000  0.050000  0.000000
  0.650000  0.250000  0.000000
  0.650000  0.200000  0.000000
  0.650000  0.150000  0.000000
  0.600000  0.000000  0.000000
  0.650000  0.100000  0.000000
  0.650000  0.050000  0.000000
  0.700000  0.300000  0.000000
  0.700000  0.250000  0.000000
  0.700000  0.200000  0.000000
  0.700000  0.150000  0.000000
  0.650000  0.000000  0.000000
  0.700000  0.100000  0.000000
  0.700000  0.050000  0.000000
  0.750000  0.300000  0.000000
  0.750000  0.250000  0.000000
  0.750000  0.200000  0.000000
  0.700000  0.000000  0.000000
  0.750000  0.150000  0.000000
  0.750000  0.100000  0.000000
  0.750000  0.050000  0.000000
  0.800000  0.300000  0.000000
  0.800000  0.250000  0.000000
  0.800000  0.200000  0.000000
  0.750000  0.000000  0.000000
  0.800000  0.150000  0.000000
  0.800000  0.100000  0.000000
  0.800000  0.050000  0.000000
  0.850000  0.300000  0.000000
  0.850000  0.250000  0.000000
  0.800000  0.000000  0.000000
  0.850000  0.200000  0.000000
  0.850000  0.150000  0.000000
  0.850000  0.100000  0.000000
  0.850000  0.050000  0.000000
  0.900000  0.300000  0.000000
  0.850000  0.000000  0.000000
  0.900000  0.250000  0.000000
  0.900000  0.200000  0.000000
  0.900000  0.150000  0.000000
  0.900000  0.100000  0.000000
  0.900000  0.050000  0.000000
  0.900000  0.000000  0.000000
  0.950000  0.300000  0.000000
  0.950000  0.250000  0.000000
  0.950000  0.200000  0.000000
  0.950000  0.150000  0.000000
  0.950000  0.100000  0.000000
  0.950000  0.050000  0.000000
  0.950000  0.000000  0.000000
  1.000000  0.300000  0.000000
  1.000000  0.250000  0.000000
  1.000000  0.200000  0.000000
  1.000000  0.150000  0.000000
  1.000000  0.100000  0.000000
  1.000000  0.050000  0.000000
  1.000000  0.000000  0.000000

CELLS  240  960
  3  35  27  33
  3  27  24  33
  3  37  29  35
  3  29  27  35
  3  41  32  37
  3  32  29  37
  3  46  39  41
  3  39  32  41
  3  50  45  46
  3  45  39  46
  3  56  51  50
  3  51  45  50
  3  62  58  56
  3  58  51  56
  3  68  64  62
  3  64  58  62
  3  74  71  68
  3  71  64  68
  3  80  77  74
  3  77  71  74
  3  87  84  80
  3  84  77  80
  3  94  90  87
  3  90  84  87
  3  101  96  94
  3  96  90  94
  3  107  103  101
  3  103  96  101
  3  114  110  107
  3  110  103  107
  3  120  117  114
  3  117  110  114
  3  126  124  120
  3  124  117  120
  3  132  131  126
  3  131  124  126
  3  139  138  132
  3  138  131  132
  3  146  145  139
  3  145  138  139
  3  27  18  24
  3  18  16  24
  3  29  21  27
  3  21  18  27
  3  32  22  29
  3  22  21  29
  3  39  30  32
  3  30  22  32
  3  45  40  39
  3  40  30  39
  3  51  47  45
  3  47  40  45
  3  58  53  51
  3  53  47  51
  3  64  59  58
  3  59  53  58
  3  71  66  64
  3  66  59  64
  3  77  73  71
  3  73  66  71
  3  84  81  77
  3  81  73  77
  3  90  88  84
  3  88  81  84
  3  96  95  90
  3  95  88  90
  3  103  102  96
  3  102  95  96
  3  110  109  103
  3  109  102  103
  3  117  116  110
  3  116  109  110
  3  124  123  117
  3  123  116  117
  3  131  130  124
  3  130  123  124
  3  138  137  131
  3  137  130  131
  3  145  144  138
  3  144  137  138
  3  18  12  16
  3  12  9  16
  3  21  13  18
  3  13  12  18
  3  22  19  21
  3  19  13  21
  3  30  25  22
  3  25  19  22
  3  40  31  30
  3  31  25  30
  3  47  42  40
  3  42  31  40
  3  53  49  47
  3  49  42  47
  3  59  57  53
  3  57  49  53
  3  66  65  59
  3  65  57  59
  3  73  72  66
  3  72  65  66
  3  81  79  73
  3  79  72  73
  3  88  86  81
  3  86  79  81
  3  95  93  88
  3  93  86  88
  3  102  100  95
  3  100  93  95
  3  109  108  102
  3  108  100  102
  3  116  115  109
  3  115  108  109
  3  123  122  116
  3  122  115  116
  3  130  129  123
  3  129  122  123
  3  137  136  130
  3  136  129  130
  3  144  143  137
  3  143  136  137
  3  12  7  9
  3  7  4  9
  3  13  8  12
  3  8  7  12
  3  19  14  13
  3  14  8  13
  3  25  20  19
  3  20  14  19
  3  31  28  25
  3  28  20  25
  3  42  38  31
  3  38  28  31
  3  49  48  42
  3  48  38  42
  3  57  55  49
  3  55  48  49
  3  65  63  57
  3  63  55  57
  3  72  70  65
  3  70  63  65
  3  79  78  72
  3  78  70  72
  3  86  85  79
  3  85  78  79
  3  93  92  86
  3  92  85  86
  3  100  99  93
  3  99  92  93
  3  108  106  100
  3  106  99  100
  3  115  113  108
  3  113  106  108
  3  122  121  115
  3  121  113  115
  3  129  128  122
  3  128  121  122
  3  136  135  129
  3  135  128  129
  3  143  142  136
  3  142  135  136
  3  7  3  4
  3  3  1  4
  3  8  6  7
  3  6  3  7
  3  14  11  8
  3  11  6  8
  3  20  17  14
  3  17  11  14
  3  28  26  20
  3  26  17  20
  3  38  36  28
  3  36  26  28
  3  48  44  38
  3  44  36  38
  3  55  54  48
  3  54  44  48
  3  63  61  55
  3  61  54  55
  3  70  69  63
  3  69  61  63
  3  78  76  70
  3  76  69  70
  3  85  83  78
  3  83  76  78
  3  92  91  85
  3  91  83  85
  3  99  98  92
  3  98  91  92
  3  106  105  99
  3  105  98  99
  3  113  112  106
  3  112  105  106
  3  121  119  113
  3  119  112  113
  3  128  127  121
  3  127  119  121
  3  135  134  128
  3  134  127  128
  3  142  141  135
  3  141  134  135
  3  3  2  1
  3  2  0  1
  3  6  5  3
  3  5  2  3
  3  11  10  6
  3  10  5  6
  3  17  15  11
  3  15  10  11
  3  26  23  17
  3  23  15  17
  3  36  34  26
  3  34  23  26
  3  44  43  36
  3  43  34  36
  3  54  52  44
  3  52  43  44
  3  61  60  54
  3  60  52  54
  3  69  67  61
  3  67  60  61
  3  76  75  69
  3  75  67  69
  3  83  82  76
  3  82  75  76
  3  91  89  83
  3  89  82  83
  3  98  97  91
  3  97  89  91
  3  105  104  98
  3  104  97  98
  3  112  111  105
  3  111  104  105
  3  119  118  112
  3  118  111  112
  3  127  125  119
  3  125  118  119
  3  134  133  127
  3  133  125  127
  3  141  140  134
  3  140  133  134

CELL_TYPES 240
5
5
5
5
5
5
5
5
5
5
5
5
5
5
5
5
5
5
5
5
5
5
5
5
5
5
5
5
5
5
5
5
5
5
5
5
5
5
5
5
5
5
5
5
5
5
5
5
5
5
5
5
5
5
5
5
5
5
5
5
5
5
5
5
5
5
5
5
5
5
5
5
5
5
5
5
5
5
5
5
5
5
5
5
5
5
5
5
5
5
5
5
5
5
5
5
5
5
5
5
5
5
5
5
5
5
5
5
5
5
5
5
5
5
5
5
5
5
5
5
5
5
5
5
5
5
5
5
5
5
5
5
5
5
5
5
5
5
5
5
5
5
5
5
5
5
5
5
5
5
5
5
5
5
5
5
5
5
5
5
5
5
5
5
5
5
5
5
5
5
5
5
5
5
5
5
5
5
5
5
5
5
5
5
5
5
5
5
5
5
5
5
5
5
5
5
5
5
5
5
5
5
5
5
5
5
5
5
5
5
5
5
5
5
5
5
5
5
5
5
5
5
5
5
5
5
5
5
5
5
5
5
5
5
5
5
5
5
5
5
POINT_DATA 147
VECTORS disp_sens_pert_x_6 double
  -0.104582  0.098644  0
  -0.003872  -0.011571  0
  -0.016939  0.011580  0
  0.004142  -0.002506  0
  0.000262  -0.002587  0
  0.118470  -0.132525  0
  -0.008415  0.010526  0
  0.002627  -0.003070  0
  -0.001734  0.005258  0
  0.002377  -0.000201  0
  0.004574  -0.003605  0
  -0.002650  -0.001849  0
  0.001514  -0.001384  0
  -0.000178  0.002121  0
  -0.001720  0.000260  0
  0.001830  -0.000138  0
  0.001182  0.002338  0
  -0.000319  -0.000954  0
  0.000588  -0.000498  0
  -0.000825  0.000635  0
  -0.000757  -0.000334  0
  -0.000008  0.000904  0
  -0.000438  0.000543  0
  0.000608  0.000194  0
  -0.004853  0.008693  0
  -0.000607  0.000024  0
  0.000140  -0.000341  0
  -0.000225  0.000211  0
  -0.000255  -0.000231  0
  -0.000268  0.000829  0
  -0.000413  0.000130  0
  -0.000326  -0.000087  0
  -0.000317  0.000296  0
  -0.021334  0.036923  0
  0.000163  0.000149  0
  0.001794  -0.000944  0
  0.000131  -0.000080  0
  0.001715  -0.000157  0
  -0.000074  -0.000099  0
  -0.000256  -0.000004  0
  -0.000273  -0.000018  0
  0.001012  0.000447  0
  -0.000161  -0.000064  0
  0.000018  0.000082  0
  0.000054  0.000011  0
  -0.000165  -0.000080  0
  0.000475  0.000478  0
  -0.000161  -0.000040  0
  -0.000031  -0.000023  0
  -0.000086  -0.000026  0
  0.000173  0.000332  0
  -0.000099  -0.000066  0
  -0.000023  0.000043  0
  -0.000098  -0.000023  0
  -0.000002  0.000035  0
  -0.000031  0.000012  0
  0.000035  0.000192  0
  -0.000059  0.000001  0
  -0.000065  -0.000033  0
  -0.000068  -0.000003  0
  -0.000031  0.000024  0
  -0.000033  0.000036  0
  -0.000017  0.000100  0
  -0.000040  0.000025  0
  -0.000052  -0.000006  0
  -0.000052  0.000016  0
  -0.000057  0.000011  0
  -0.000031  0.000017  0
  -0.000032  0.000051  0
  -0.000048  0.000034  0
  -0.000048  0.000028  0
  -0.000049  0.000011  0
  -0.000052  0.000023  0
  -0.000054  0.000020  0
  -0.000033  0.000027  0
  -0.000030  0.000015  0
  -0.000054  0.000031  0
  -0.000050  0.000020  0
  -0.000053  0.000029  0
  -0.000054  0.000027  0
  -0.000031  0.000018  0
  -0.000054  0.000025  0
  -0.000029  0.000014  0
  -0.000057  0.000030  0
  -0.000053  0.000025  0
  -0.000056  0.000029  0
  -0.000056  0.000028  0
  -0.000029  0.000014  0
  -0.000055  0.000027  0
  -0.000029  0.000014  0
  -0.000054  0.000027  0
  -0.000058  0.000029  0
  -0.000057  0.000029  0
  -0.000057  0.000029  0
  -0.000029  0.000014  0
  -0.000056  0.000028  0
  -0.000056  0.000028  0
  -0.000029  0.000014  0
  -0.000058  0.000029  0
  -0.000058  0.000029  0
  -0.000057  0.000029  0
  -0.000028  0.000014  0
  -0.000057  0.000028  0
  -0.000057  0.000028  0
  -0.000029  0.000014  0
  -0.000058  0.000029  0
  -0.000058  0.000029  0
  -0.000028  0.000014  0
  -0.000058  0.000029  0
  -0.000058  0.000029  0
  -0.000057  0.000029  0
  -0.000029  0.000014  0
  -0.000058  0.000029  0
  -0.000058  0.000029  0
  -0.000029  0.000014  0
  -0.000058  0.000029  0
  -0.000058  0.000029  0
  -0.000058  0.000029  0
  -0.000029  0.000014  0
  -0.000058  0.000029  0
  -0.000029  0.000014  0
  -0.000058  0.000029  0
  -0.000058  0.000029  0
  -0.000058  0.000029  0
  -0.000058  0.000029  0
  -0.000029  0.000014  0
  -0.000029  0.000014  0
  -0.000058  0.000029  0
  -0.000058  0.000029  0
  -0.000058  0.000029  0
  -0.000057  0.000029  0
  -0.000057  0.000029  0
  -0.000029  0.000014  0
  -0.000029  0.000014  0
  -0.000057  0.000029  0
  -0.000057  0.000029  0
  -0.000057  0.000028  0
  -0.000057  0.000028  0
  -0.000057  0.000028  0
  -0.000029  0.000014  0
  0.027036  -0.017335  0
  -0.000029  0.000014  0
  -0.000029  0.000014  0
  -0.000029  0.000014  0
  -0.000029  0.000014  0
  -0.000029  0.000014  0
  -0.000014  0.000007  0
VECTORS disp_sens_pert_x_14 double
  -0.015676  0.062933  0
  -0.007540  0.002450  0
  0.000922  0.001958  0
  0.000571  0.000388  0
  -0.007697  0.003745  0
  0.000689  -0.002061  0
  0.000851  -0.001209  0
  0.000788  0.001279  0
  0.004115  -0.004660  0
  -0.003011  0.001973  0
  -0.000101  -0.000481  0
  -0.000150  0.001710  0
  -0.007586  0.004217  0
  -0.000572  -0.123818  0
  -0.001605  0.002166  0
  -0.000095  -0.000338  0
  0.010785  0.003806  0
  -0.000161  0.000393  0
  0.002288  -0.001527  0
  0.004351  -0.003244  0
  -0.000898  0.000601  0
  -0.004212  0.004131  0
  -0.000981  -0.000985  0
  -0.000086  -0.000189  0
  0.011007  0.011707  0
  0.001857  -0.000461  0
  -0.000177  0.000049  0
  0.000062  -0.000738  0
  -0.000361  0.000284  0
  -0.000835  0.002291  0
  0.000104  -0.000505  0
  0.000699  -0.000027  0
  -0.000581  -0.000204  0
  0.012374  0.043760  0
  -0.000041  -0.000075  0
  0.001708  -0.000675  0
  -0.000122  -0.000002  0
  0.000067  0.002123  0
  -0.000157  0.000124  0
  -0.000143  -0.000381  0
  0.000220  -0.000189  0
  -0.000483  0.001215  0
  0.000249  0.000033  0
  -0.000011  -0.000022  0
  -0.000070  -0.000000  0
  0.000017  -0.000219  0
  -0.000415  0.000553  0
  0.000147  -0.000063  0
  -0.000074  0.000055  0
  0.000082  0.000030  0
  -0.000238  0.000231  0
  0.000041  -0.000096  0
  0.000001  -0.000002  0
  0.000076  -0.000015  0
  -0.000035  0.000006  0
  -0.000036  0.000028  0
  -0.000110  0.000092  0
  0.000024  0.000022  0
  0.000028  -0.000033  0
  0.000034  0.000003  0
  0.000003  0.000004  0
  -0.000016  0.000011  0
  -0.000041  0.000037  0
  -0.000017  0.000018  0
  0.000013  -0.000005  0
  0.000005  0.000017  0
  0.000013  0.000010  0
  0.000002  0.000006  0
  -0.000012  0.000016  0
  -0.000007  0.000013  0
  -0.000008  0.000015  0
  0.000005  0.000006  0
  -0.000000  0.000015  0
  0.000004  0.000012  0
  -0.000001  0.000009  0
  0.000001  0.000007  0
  -0.000002  0.000014  0
  0.000001  0.000011  0
  -0.000004  0.000014  0
  -0.000001  0.000015  0
  0.000001  0.000007  0
  0.000001  0.000013  0
  0.000001  0.000007  0
  -0.000001  0.000014  0
  -0.000000  0.000013  0
  -0.000002  0.000014  0
  -0.000001  0.000014  0
  0.000001  0.000007  0
  -0.000000  0.000014  0
  0.000000  0.000007  0
  -0.000000  0.000014  0
  -0.000000  0.000014  0
  -0.000001  0.000014  0
  -0.000001  0.000014  0
  0.000001  0.000007  0
  -0.000000  0.000014  0
  -0.000000  0.000014  0
  -0.000000  0.000007  0
  -0.000000  0.000014  0
  -0.000000  0.000014  0
  -0.000000  0.000014  0
  0.000000  0.000007  0
  -0.000000  0.000014  0
  -0.000000  0.000014  0
  -0.000000  0.000007  0
  -0.000000  0.000014  0
  -0.000000  0.000014  0
  0.000000  0.000007  0
  -0.000000  0.000014  0
  -0.000000  0.000014  0
  -0.000000  0.000014  0
  -0.000000  0.000007  0
  -0.000000  0.000014  0
  -0.000000  0.000014  0
  -0.000000  0.000007  0
  -0.000000  0.000014  0
  -0.000000  0.000014  0
  -0.000000  0.000014  0
  -0.000000  0.000007  0
  -0.000000  0.000014  0
  -0.000000  0.000007  0
  -0.000000  0.000014  0
  -0.000000  0.000014  0
  -0.000000  0.000014  0
  -0.000000  0.000014  0
  -0.000000  0.000007  0
  -0.000000  0.000007  0
  -0.000000  0.000014  0
  -0.000000  0.000014  0
  -0.000000  0.000014  0
  -0.000000  0.000014  0
  -0.000000  0.000014  0
  -0.000000  0.000007  0
  -0.000000  0.000007  0
  -0.000000  0.000014  0
  -0.000000  0.000014  0
  -0.000000  0.000014  0
  -0.000000  0.000014  0
  -0.000000  0.000014  0
  -0.000000  0.000007  0
  0.000125  -0.011415  0
  -0.000000  0.000007  0
  -0.000000  0.000007  0
  -0.000000  0.000007  0
  -0.000000  0.000007  0
  -0.000000  0.000007  0
  -0.000000  0.000004  0
VECTORS disp_sens_pert_x_38 double
  0.031015  0.056170  0
  -0.000809  0.001396  0
  0.004272  0.002875  0
  0.000675  -0.000205  0
  -0.002840  0.002187  0
  0.001342  -0.000212  0
  0.000430  0.000385  0
  0.000441  -0.000967  0
  0.000249  -0.000830  0
  -0.002013  0.002245  0
  0.000499  -0.000388  0
  0.000262  0.000766  0
  0.000908  -0.000504  0
  0.000597  -0.002150  0
  -0.000073  0.000697  0
  0.000194  -0.000336  0
  0.004682  0.003520  0
  0.000327  0.000484  0
  0.001628  0.000866  0
  -0.000393  0.001003  0
  0.000198  0.000576  0
  0.001943  -0.004898  0
  -0.000882  0.002234  0
  0.000062  -0.000220  0
  0.026818  0.009440  0
  0.000090  0.000733  0
  0.000283  0.000238  0
  0.002400  0.005294  0
  0.000233  0.000326  0
  0.008088  -0.011897  0
  -0.000295  0.000866  0
  0.000126  0.000344  0
  -0.003262  0.003837  0
  0.076013  0.062715  0
  0.000013  -0.000121  0
  -0.007177  0.002898  0
  0.000199  0.000088  0
  -0.119510  -0.116296  0
  0.000177  0.000147  0
  -0.002152  0.000581  0
  -0.000202  0.000281  0
  0.003282  -0.004137  0
  0.000094  0.000153  0
  0.000003  -0.000055  0
  0.000128  0.000025  0
  -0.000798  0.000455  0
  0.001467  -0.001514  0
  -0.000066  0.000160  0
  0.000122  0.000063  0
  0.000079  0.000080  0
  0.000496  -0.000750  0
  -0.000250  0.000282  0
  0.000008  -0.000017  0
  0.000008  0.000102  0
  0.000085  0.000009  0
  0.000088  0.000032  0
  0.000141  -0.000354  0
  0.000070  0.000049  0
  -0.000046  0.000156  0
  0.000040  0.000067  0
  0.000016  0.000002  0
  0.000066  0.000012  0
  0.000034  -0.000151  0
  0.000070  0.000023  0
  0.000025  0.000086  0
  0.000064  0.000035  0
  0.000052  0.000046  0
  0.000022  0.000010  0
  0.000011  -0.000055  0
  0.000059  0.000019  0
  0.000062  0.000023  0
  0.000048  0.000052  0
  0.000061  0.000030  0
  0.000056  0.000035  0
  0.000013  -0.000012  0
  0.000026  0.000013  0
  0.000057  0.000024  0
  0.000055  0.000037  0
  0.000059  0.000025  0
  0.000059  0.000028  0
  0.000019  0.000005  0
  0.000058  0.000031  0
  0.000028  0.000014  0
  0.000058  0.000027  0
  0.000057  0.000031  0
  0.000058  0.000027  0
  0.000059  0.000028  0
  0.000024  0.000012  0
  0.000058  0.000029  0
  0.000029  0.000015  0
  0.000058  0.000029  0
  0.000058  0.000028  0
  0.000059  0.000028  0
  0.000059  0.000028  0
  0.000026  0.000014  0
  0.000059  0.000029  0
  0.000058  0.000029  0
  0.000029  0.000015  0
  0.000059  0.000029  0
  0.000059  0.000029  0
  0.000059  0.000029  0
  0.000028  0.000014  0
  0.000059  0.000029  0
  0.000059  0.000029  0
  0.000030  0.000015  0
  0.000059  0.000029  0
  0.000059  0.000029  0
  0.000029  0.000014  0
  0.000059  0.000029  0
  0.000059  0.000029  0
  0.000059  0.000029  0
  0.000030  0.000015  0
  0.000059  0.000029  0
  0.000059  0.000029  0
  0.000029  0.000014  0
  0.000059  0.000029  0
  0.000059  0.000029  0
  0.000059  0.000029  0
  0.000030  0.000014  0
  0.000059  0.000029  0
  0.000029  0.000014  0
  0.000059  0.000029  0
  0.000059  0.000029  0
  0.000059  0.000029  0
  0.000059  0.000029  0
  0.000029  0.000014  0
  0.000029  0.000014  0
  0.000059  0.000029  0
  0.000059  0.000029  0
  0.000059  0.000029  0
  0.000059  0.000029  0
  0.000059  0.000029  0
  0.000029  0.000014  0
  0.000029  0.000014  0
  0.000059  0.000029  0
  0.000059  0.000029  0
  0.000059  0.000029  0
  0.000059  0.000029  0
  0.000059  0.000029  0
  0.000029  0.000014  0
  -0.027765  -0.017708  0
  0.000029  0.000014  0
  0.000029  0.000014  0
  0.000029  0.000014  0
  0.000029  0.000014  0
  0.000029  0.000014  0
  0.000015  0.000007  0
VECTORS disp_sens_pert_x_68 double
  -0.089563  0.239068  0
  -0.016432  0.018866  0
  -0.009477  0.026245  0
  -0.002041  0.003330  0
  -0.002726  -0.002641  0
  -0.003420  0.009056  0
  -0.001197  0.002988  0
  0.000313  -0.001573  0
  -0.000361  0.000812  0
  0.004602  -0.008424  0
  -0.002510  0.005496  0
  -0.000728  0.002161  0
  0.000796  -0.001695  0
  0.000032  0.000225  0
  -0.000447  0.001398  0
  -0.002142  0.003820  0
  0.004013  0.008254  0
  -0.000530  0.001685  0
  0.000794  -0.000909  0
  -0.000288  0.001133  0
  -0.000428  0.001463  0
  0.000058  0.000702  0
  -0.000257  0.001338  0
  -0.001901  0.002741  0
  -0.006143  0.058808  0
  -0.000382  0.001365  0
  -0.000421  0.001374  0
  0.000268  0.001317  0
  -0.000378  0.001352  0
  0.000056  0.001532  0
  -0.000368  0.001407  0
  -0.000398  0.001318  0
  -0.000160  0.001410  0
  -0.024590  0.171025  0
  -0.001739  0.001977  0
  0.002668  -0.006981  0
  -0.000304  0.001137  0
  0.003329  -0.009596  0
  -0.000309  0.001213  0
  -0.000315  0.001409  0
  -0.000432  0.001312  0
  0.003208  -0.008237  0
  -0.000399  0.001180  0
  -0.001687  0.001441  0
  -0.000102  0.000973  0
  -0.000431  0.001346  0
  0.002933  -0.006612  0
  -0.000480  0.001138  0
  -0.000227  0.001096  0
  -0.000409  0.000984  0
  0.002607  -0.005017  0
  -0.000519  0.001186  0
  -0.001811  0.001067  0
  -0.000502  0.000914  0
  0.000274  0.000981  0
  -0.000195  0.000912  0
  0.002262  -0.003554  0
  -0.000402  0.000724  0
  -0.000565  0.000963  0
  -0.000455  0.000697  0
  -0.002149  0.000853  0
  0.000782  0.001201  0
  0.001899  -0.002276  0
  -0.000228  0.000437  0
  -0.000543  0.000735  0
  -0.000254  0.000537  0
  -0.000331  0.000580  0
  0.036751  -0.302544  0
  0.001510  -0.001209  0
  -0.002316  0.001869  0
  -0.000886  0.001777  0
  -0.000456  0.000567  0
  -0.000564  0.001318  0
  -0.000455  0.000943  0
  0.001088  -0.000378  0
  0.000920  -0.000368  0
  -0.000746  0.000003  0
  -0.000451  0.000640  0
  -0.000706  0.000488  0
  -0.000586  0.000676  0
  0.000603  0.000253  0
  -0.000487  0.000665  0
  0.000206  0.000204  0
  -0.000278  0.000277  0
  -0.000429  0.000530  0
  -0.000425  0.000383  0
  -0.000449  0.000487  0
  0.000218  0.000417  0
  -0.000422  0.000522  0
  -0.000050  0.000269  0
  -0.000378  0.000473  0
  -0.000234  0.000437  0
  -0.000313  0.000437  0
  -0.000355  0.000468  0
  -0.000003  0.000387  0
  -0.000359  0.000486  0
  -0.000336  0.000468  0
  -0.000126  0.000263  0
  -0.000263  0.000494  0
  -0.000288  0.000479  0
  -0.000314  0.000483  0
  -0.000103  0.000326  0
  -0.000323  0.000487  0
  -0.000313  0.000480  0
  -0.000144  0.000256  0
  -0.000286  0.000507  0
  -0.000289  0.000499  0
  -0.000139  0.000284  0
  -0.000300  0.000496  0
  -0.000307  0.000495  0
  -0.000303  0.000491  0
  -0.000148  0.000253  0
  -0.000296  0.000508  0
  -0.000294  0.000505  0
  -0.000149  0.000262  0
  -0.000297  0.000502  0
  -0.000300  0.000500  0
  -0.000299  0.000498  0
  -0.000148  0.000251  0
  -0.000298  0.000505  0
  -0.000150  0.000254  0
  -0.000296  0.000505  0
  -0.000297  0.000503  0
  -0.000298  0.000501  0
  -0.000297  0.000500  0
  -0.000148  0.000251  0
  -0.000149  0.000251  0
  -0.000297  0.000502  0
  -0.000296  0.000502  0
  -0.000296  0.000502  0
  -0.000296  0.000500  0
  -0.000296  0.000500  0
  -0.000148  0.000249  0
  -0.000147  0.000250  0
  -0.000295  0.000499  0
  -0.000295  0.000499  0
  -0.000295  0.000499  0
  -0.000294  0.000498  0
  -0.000295  0.000498  0
  -0.000147  0.000249  0
  0.107979  -0.223334  0
  -0.000145  0.000247  0
  -0.000145  0.000246  0
  -0.000146  0.000246  0
  -0.000146  0.000247  0
  -0.000147  0.000248  0
  -0.000073  0.000124  0
VECTORS disp_sens_pert_x_73 double
  -0.026268  0.239117  0
  -0.008551  0.018869  0
  -0.001337  0.026232  0
  -0.000704  0.003348  0
  -0.004224  -0.002623  0
  -0.000005  0.009028  0
  -0.000322  0.003016  0
  -0.000170  -0.001549  0
  -0.000206  0.000848  0
  0.000621  -0.008435  0
  0.000074  0.005439  0
  -0.000128  0.002209  0
  -0.000020  -0.001690  0
  -0.000097  0.000237  0
  -0.000145  0.001454  0
  0.000067  0.003712  0
  0.005888  0.008236  0
  -0.000053  0.001769  0
  0.000058  -0.000925  0
  -0.000098  0.001155  0
  -0.000117  0.001545  0
  -0.000019  0.000687  0
  -0.000009  0.001327  0
  0.000074  0.002548  0
  0.012491  0.058815  0
  -0.000109  0.001403  0
  -0.000029  0.001510  0
  0.000137  0.001291  0
  -0.000126  0.001466  0
  -0.000019  0.001501  0
  0.000023  0.001404  0
  -0.000168  0.001375  0
  -0.000013  0.001380  0
  0.021381  0.170958  0
  0.000108  0.001656  0
  0.000834  -0.006978  0
  -0.000016  0.001336  0
  0.000297  -0.009601  0
  -0.000151  0.001357  0
  0.000042  0.001401  0
  0.000064  0.001323  0
  0.000163  -0.008260  0
  -0.000309  0.001277  0
  0.000162  0.000948  0
  0.000019  0.001208  0
  0.000103  0.001393  0
  0.000083  -0.006659  0
  0.000121  0.001169  0
  -0.000148  0.001271  0
  -0.000587  0.001204  0
  0.000052  -0.005092  0
  0.000146  0.001321  0
  0.000212  0.000381  0
  0.000225  0.000963  0
  0.000104  0.001083  0
  -0.000022  0.001220  0
  0.000063  -0.003652  0
  -0.001096  0.001309  0
  0.000140  0.001159  0
  0.000441  0.000730  0
  0.000211  -0.000056  0
  0.000237  0.000841  0
  0.000095  -0.002383  0
  0.000427  0.001100  0
  0.000032  0.000768  0
  -0.001810  0.002355  0
  0.000443  -0.000095  0
  0.000104  -0.000280  0
  0.000133  -0.001300  0
  0.000251  0.000206  0
  0.001210  -0.000921  0
  0.000045  0.000135  0
  0.000662  -0.304146  0
  -0.001134  0.002262  0
  0.000186  -0.000380  0
  -0.000036  0.000097  0
  -0.000049  0.000822  0
  -0.000280  0.001132  0
  -0.000400  0.001166  0
  0.001269  -0.000574  0
  -0.000199  0.001032  0
  -0.000166  0.000120  0
  -0.000033  0.000163  0
  -0.000062  0.000533  0
  -0.000127  0.000337  0
  -0.000225  0.000636  0
  0.000485  0.000370  0
  -0.000261  0.000616  0
  0.000090  0.000338  0
  -0.000024  0.000209  0
  0.000000  0.000349  0
  -0.000047  0.000481  0
  -0.000088  0.000541  0
  0.000154  0.000484  0
  -0.000157  0.000376  0
  0.000077  0.000440  0
  0.000026  0.000420  0
  -0.000010  0.000235  0
  -0.000025  0.000482  0
  -0.000037  0.000506  0
  0.000042  0.000495  0
  -0.000069  0.000284  0
  0.000039  0.000474  0
  0.000019  0.000461  0
  -0.000004  0.000243  0
  -0.000010  0.000488  0
  -0.000016  0.000495  0
  -0.000023  0.000253  0
  0.000009  0.000493  0
  0.000015  0.000485  0
  0.000010  0.000478  0
  -0.000002  0.000245  0
  -0.000003  0.000489  0
  -0.000006  0.000491  0
  -0.000005  0.000245  0
  0.000000  0.000491  0
  0.000005  0.000488  0
  0.000004  0.000485  0
  -0.000001  0.000244  0
  -0.000000  0.000489  0
  -0.000000  0.000243  0
  -0.000002  0.000489  0
  -0.000001  0.000489  0
  0.000001  0.000488  0
  0.000002  0.000486  0
  -0.000001  0.000243  0
  0.000001  0.000243  0
  0.000000  0.000487  0
  -0.000001  0.000487  0
  -0.000001  0.000487  0
  0.000000  0.000486  0
  0.000001  0.000485  0
  0.000000  0.000242  0
  -0.000000  0.000242  0
  0.000000  0.000484  0
  -0.000000  0.000484  0
  -0.000000  0.000484  0
  0.000000  0.000483  0
  0.000000  0.000483  0
  0.000000  0.000241  0
  -0.000174  -0.219870  0
  -0.000001  0.000242  0
  -0.000001  0.000241  0
  0.000000  0.000241  0
  0.000000  0.000241  0
  0.000000  0.000241  0
  0.000000  0.000121  0
VECTORS disp_sens_pert_x_81 double
  0.037367  0.239140  0
  -0.000755  0.018863  0
  0.006878  0.026223  0
  0.000621  0.003352  0
  -0.005772  -0.002606  0
  0.003457  0.009014  0
  0.000557  0.003023  0
  -0.000653  -0.001534  0
  -0.000013  0.000866  0
  -0.003388  -0.008436  0
  0.002683  0.005413  0
  0.000496  0.002218  0
  -0.000862  -0.001677  0
  -0.000234  0.000258  0
  0.000257  0.001477  0
  0.002252  0.003670  0
  0.007799  0.008218  0
  0.000487  0.001776  0
  -0.000742  -0.000929  0
  0.000130  0.001192  0
  0.000396  0.001567  0
  -0.000203  0.000692  0
  0.000079  0.001355  0
  0.001913  0.002488  0
  0.031154  0.058819  0
  0.000308  0.001461  0
  0.000495  0.001508  0
  -0.000044  0.001267  0
  0.000478  0.001472  0
  -0.000218  0.001474  0
  0.000191  0.001475  0
  0.000417  0.001452  0
  -0.000101  0.001350  0
  0.067079  0.170925  0
  0.001601  0.001586  0
  -0.000933  -0.006982  0
  0.000511  0.001309  0
  -0.002640  -0.009618  0
  0.000545  0.001314  0
  -0.000001  0.001385  0
  0.000276  0.001471  0
  -0.002769  -0.008303  0
  0.000525  0.001348  0
  0.001292  0.000896  0
  0.000529  0.001131  0
  0.000039  0.001434  0
  -0.002666  -0.006754  0
  0.000393  0.001439  0
  0.000604  0.001120  0
  0.000652  0.001180  0
  -0.002496  -0.005272  0
  0.000061  0.001508  0
  0.000978  0.000406  0
  0.000591  0.001375  0
  0.000536  0.000951  0
  0.000633  0.000882  0
  -0.002378  -0.003947  0
  0.000775  0.000911  0
  0.000179  0.001665  0
  0.000907  0.001194  0
  0.000674  0.000126  0
  0.000511  0.000769  0
  -0.002445  -0.002750  0
  0.000587  0.000605  0
  0.000636  0.001920  0
  0.000795  0.000452  0
  0.001247  0.000569  0
  0.000417  0.000056  0
  -0.002847  -0.001425  0
  0.000447  0.000641  0
  0.000431  0.000412  0
  0.001865  0.001908  0
  0.000516  -0.000170  0
  0.000952  -0.001548  0
  -0.003461  0.001439  0
  0.000257  0.000132  0
  0.000389  0.000665  0
  0.003087  -0.004484  0
  0.000299  0.000758  0
  0.000157  0.000920  0
  -0.037220  -0.297380  0
  -0.000047  0.001301  0
  0.000190  0.000184  0
  0.000378  0.000580  0
  -0.000534  0.001937  0
  0.000355  0.000664  0
  0.000322  0.000749  0
  0.001013  -0.001245  0
  0.000234  0.000801  0
  0.000163  0.000220  0
  -0.000308  0.000604  0
  0.000348  0.000526  0
  0.000351  0.000576  0
  0.000332  0.000603  0
  0.000485  -0.000218  0
  0.000249  0.000575  0
  0.000087  0.000578  0