# vtk DataFile Version 2.0
geometrically linear steady-state plane stress analysis
ASCII

DATASET UNSTRUCTURED_GRID
POINTS 126 double
  6.053640  -3.020430  0.000000
  5.097980  -3.055374  0.000000
  6.053640  -2.003830  0.000000
  4.687640  -2.224723  0.000000
  5.146846  -1.436191  0.000000
  4.146850  -3.104135  0.000000
  6.053640  -0.987230  0.000000
  4.098189  -1.462726  0.000000
  3.659012  -2.368433  0.000000
  4.843368  -0.539912  0.000000
  3.190275  -3.174124  0.000000
  6.053640  0.029380  0.000000
  3.119010  -1.531680  0.000000
  5.040138  0.313240  0.000000
  3.561356  -0.625502  0.000000
  2.695667  -2.447781  0.000000
  4.022677  0.269294  0.000000
  2.227927  -3.265284  0.000000
  6.053640  1.045980  0.000000
  2.562605  -0.706320  0.000000
  2.137612  -1.622500  0.000000
  4.587243  1.132980  0.000000
  3.005336  0.199929  0.000000
  1.729422  -2.547601  0.000000
  3.463846  1.095753  0.000000
  1.260603  -3.375742  0.000000
  6.053640  2.062580  0.000000
  1.565884  -0.805980  0.000000
  4.997693  2.028132  0.000000
  1.991997  0.110177  0.000000
  1.104205  -1.801330  0.000000
  0.842623  -2.680333  0.000000
  3.937890  1.980172  0.000000
  2.430749  1.016248  0.000000
  2.883583  1.912060  0.000000
  0.977695  0.000438  0.000000
  0.566772  -0.924658  0.000000
  0.288479  -3.504313  0.000000
  1.400611  0.916899  0.000000
  1.834477  1.823489  0.000000
  -0.213148  -2.268301  0.000000
  -0.032286  -0.124998  0.000000
  0.373535  0.799722  0.000000
  -0.430702  -1.058835  0.000000
  -0.691716  -3.645826  0.000000
  0.790325  1.716115  0.000000
  -1.123287  -2.783785  0.000000
  -1.101037  -1.822601  0.000000
  -0.650651  0.666514  0.000000
  -1.123351  -0.441749  0.000000
  -0.248973  1.591756  0.000000
  -1.673341  -3.800214  0.000000
  -1.931801  -2.398891  0.000000
  -2.000061  -1.236675  0.000000
  -1.488452  0.603048  0.000000
  -1.283196  1.452717  0.000000
  -2.159345  -0.154540  0.000000
  -2.760536  -2.960919  0.000000
  -2.660496  -3.968594  0.000000
  -2.830139  -1.975874  0.000000
  -2.929287  -0.827792  0.000000
  -2.312890  1.301354  0.000000
  -3.129056  0.156333  0.000000
  -3.330715  -4.542985  0.000000
  -3.553949  -3.577635  0.000000
  -3.652765  -2.571913  0.000000
  -3.745481  -1.568260  0.000000
  -3.338531  1.137044  0.000000
  -3.883579  -0.507449  0.000000
  -4.008081  -5.118856  0.000000
  -4.232993  -4.155634  0.000000
  -4.450630  -3.191189  0.000000
  -4.092605  0.475457  0.000000
  -4.549466  -2.186709  0.000000
  -4.633695  -1.175139  0.000000
  -4.232870  1.457031  0.000000
  -4.842606  -0.191757  0.000000
  -4.913684  -4.733033  0.000000
  -4.689341  -5.695177  0.000000
  -5.133941  -3.769621  0.000000
  -5.350007  -2.806796  0.000000
  -4.976883  0.790175  0.000000
  -5.450440  -1.804091  0.000000
  -5.590127  -0.860870  0.000000
  -5.120292  1.773835  0.000000
  -5.596179  -5.309527  0.000000
  -5.817339  -4.347145  0.000000
  -5.373129  -6.270908  0.000000
  -5.722220  0.121504  0.000000
  -6.035833  -3.384907  0.000000
  -6.252223  -2.423891  0.000000
  -5.860056  1.103736  0.000000
  -6.335262  -1.530640  0.000000
  -6.467234  -0.547787  0.000000
  -6.004432  2.088017  0.000000
  -6.561636  -5.027918  0.000000
  -6.407858  -5.894456  0.000000
  -6.781666  -4.066431  0.000000
  -6.602461  0.433931  0.000000
  -7.000111  -3.105636  0.000000
  -7.169035  -2.068273  0.000000
  -6.742173  1.415667  0.000000
  -7.273963  -1.164915  0.000000
  -7.408572  -0.183163  0.000000
  -6.887016  2.398507  0.000000
  -7.599819  -4.653137  0.000000
  -7.441149  -5.517817  0.000000
  -7.747153  -3.786077  0.000000
  -7.546110  0.797608  0.000000
  -7.944309  -2.719427  0.000000
  -8.095652  -1.724848  0.000000
  -8.178938  -0.723071  0.000000
  -7.728902  1.684408  0.000000
  -8.299776  0.260913  0.000000
  -8.592681  -4.378887  0.000000
  -8.474740  -5.141424  0.000000
  -8.734922  -3.358842  0.000000
  -8.889686  -2.358677  0.000000
  -8.573695  0.975593  0.000000
  -9.153362  -1.081992  0.000000
  -9.419360  0.268658  0.000000
  -9.509221  -4.764077  0.000000
  -9.698222  -3.679604  0.000000
  -9.886486  -2.596918  0.000000
  -10.075164  -1.516083  0.000000
  -10.265657  -0.436750  0.000000

CELLS  207  828
  3  87  78  85
  3  78  69  77
  3  69  63  70
  3  63  58  64
  3  67  75  72
  3  75  84  81
  3  84  94  91
  3  94  104  101
  3  85  78  77
  3  85  77  86
  3  77  69  70
  3  77  70  79
  3  70  63  64
  3  70  64  71
  3  64  58  57
  3  86  77  79
  3  86  79  89
  3  79  70  71
  3  79  71  80
  3  71  64  65
  3  89  79  80
  3  89  80  90
  3  86  89  97
  3  90  80  82
  3  89  90  99
  3  87  85  96
  3  85  86  95
  3  80  71  73
  3  72  75  81
  3  72  81  76
  3  81  84  91
  3  81  91  88
  3  91  94  101
  3  91  101  98
  3  101  104  112
  3  76  81  88
  3  76  88  83
  3  88  91  98
  3  88  98  93
  3  98  101  108
  3  83  88  93
  3  83  93  92
  3  76  83  74
  3  92  93  102
  3  83  92  82
  3  82  92  90
  3  83  82  74
  3  90  92  100
  3  100  92  102
  3  100  102  110
  3  90  100  99
  3  110  102  111
  3  100  110  109
  3  67  72  62
  3  72  76  68
  3  93  98  103
  3  96  85  95
  3  96  95  106
  3  106  95  105
  3  57  58  51
  3  97  89  99
  3  97  99  107
  3  73  71  65
  3  73  65  66
  3  107  99  109
  3  66  65  59
  3  65  64  57
  3  65  57  59
  3  59  57  52
  3  52  57  51
  3  59  52  53
  3  82  80  73
  3  82  73  74
  3  95  86  97
  3  95  97  105
  3  105  97  107
  3  105  114  115
  3  73  66  74
  3  74  66  68
  3  74  68  76
  3  111  102  103
  3  111  103  113
  3  103  102  93
  3  113  103  108
  3  113  108  118
  3  113  118  120
  3  111  113  120
  3  108  103  98
  3  110  111  119
  3  109  110  117
  3  100  109  99
  3  108  101  112
  3  108  112  118
  3  62  72  68
  3  62  68  60
  3  60  68  66
  3  62  60  56
  3  67  62  61
  3  106  105  115
  3  66  59  60
  3  59  53  60
  3  110  119  117
  3  109  117  116
  3  53  52  47
  3  119  111  120
  3  26  28  18
  3  39  45  38
  3  32  34  24
  3  50  55  48
  3  62  56  61
  3  28  32  21
  3  45  50  42
  3  56  60  53
  3  34  39  33
  3  55  61  54
  3  116  117  123
  3  48  55  54
  3  48  54  49
  3  54  61  56
  3  54  56  49
  3  48  49  41
  3  38  45  42
  3  38  42  35
  3  35  42  41
  3  41  42  48
  3  35  41  36
  3  48  42  50
  3  36  41  43
  3  35  36  27
  3  38  35  29
  3  47  52  46
  3  24  34  33
  3  24  33  22
  3  22  33  29
  3  29  33  38
  3  22  29  19
  3  38  33  39
  3  19  29  27
  3  19  27  20
  3  22  19  14
  3  27  29  35
  3  20  27  30
  3  19  20  12
  3  24  22  16
  3  21  32  24
  3  21  24  16
  3  21  16  13
  3  13  16  9
  3  21  13  18
  3  109  116  107
  3  53  47  49
  3  28  21  18
  3  41  49  43
  3  43  49  47
  3  47  46  40
  3  30  27  36
  3  30  36  40
  3  16  22  14
  3  16  14  9
  3  9  14  7
  3  40  44  37
  3  47  40  43
  3  36  43  40
  3  14  19  12
  3  14  12  7
  3  7  12  8
  3  8  12  15
  3  7  8  3
  3  15  12  20
  3  15  20  23
  3  23  20  30
  3  15  23  17
  3  17  23  25
  3  15  17  10
  3  25  23  31
  3  15  10  8
  3  8  10  5
  3  8  5  3
  3  3  5  1
  3  3  1  2
  3  31  23  30
  3  31  30  40
  3  25  31  37
  3  7  3  4
  3  4  3  2
  3  7  4  9
  3  9  4  6
  3  13  9  11
  3  46  52  51
  3  123  117  124
  3  1  0  2
  3  44  40  46
  3  44  46  51
  3  6  11  9
  3  2  6  4
  3  11  18  13
  3  31  40  37
  3  117  119  124
  3  107  116  114
  3  114  116  122
  3  107  114  105
  3  115  114  121
  3  122  116  123
  3  121  114  122
  3  124  119  125
  3  120  125  119
  3  49  56  53

CELL_TYPES 207
5
5
5
5
5
5
5
5
5
5
5
5
5
5
5
5
5
5
5
5
5
5
5
5
5
5
5
5
5
5
5
5
5
5
5
5
5
5
5
5
5
5
5
5
5
5
5
5
5
5
5
5
5
5
5
5
5
5
5
5
5
5
5
5
5
5
5
5
5
5
5
5
5
5
5
5
5
5
5
5
5
5
5
5
5
5
5
5
5
5
5
5
5
5
5
5
5
5
5
5
5
5
5
5
5
5
5
5
5
5
5
5
5
5
5
5
5
5
5
5
5
5
5
5
5
5
5
5
5
5
5
5
5
5
5
5
5
5
5
5
5
5
5
5
5
5
5
5
5
5
5
5
5
5
5
5
5
5
5
5
5
5
5
5
5
5
5
5
5
5
5
5
5
5
5
5
5
5
5
5
5
5
5
5
5
5
5
5
5
5
5
5
5
5
5
5
5
5
5
5
5
5
5
5
5
5
5

CELL_DATA 207
TENSORS strain double
  -0.001409  0.000289  0.000000
  0.000289  0.000394  0.000000
  0.000000  0.000000  0.000000

  -0.003878  -0.000284  0.000000
  -0.000284  0.001188  0.000000
  0.000000  0.000000  0.000000

  -0.008502  -0.001304  0.000000
  -0.001304  0.002234  0.000000
  0.000000  0.000000  0.000000

  -0.018568  -0.002256  0.000000
  -0.002256  0.004274  0.000000
  0.000000  0.000000  0.000000

  0.019998  -0.003448  0.000000
  -0.003448  -0.004325  0.000000
  0.000000  0.000000  0.000000

  0.009675  -0.002311  0.000000
  -0.002311  -0.002381  0.000000
  0.000000  0.000000  0.000000

  0.005063  -0.000930  0.000000
  -0.000930  -0.001876  0.000000
  0.000000  0.000000  0.000000

  0.002884  0.000733  0.000000
  0.000733  -0.003478  0.000000
  0.000000  0.000000  0.000000

  -0.002305  -0.000138  0.000000
  -0.000138  0.001199  0.000000
  0.000000  0.000000  0.000000

  -0.004149  0.001390  0.000000
  0.001390  0.001438  0.000000
  0.000000  0.000000  0.000000

  -0.004273  -0.000213  0.000000
  -0.000213  0.002338  0.000000
  0.000000  0.000000  0.000000

  -0.006966  0.002060  0.000000
  0.002060  0.002539  0.000000
  0.000000  0.000000  0.000000

  -0.007331  0.000339  0.000000
  0.000339  0.004518  0.000000
  0.000000  0.000000  0.000000

  -0.010563  0.003403  0.000000
  0.003403  0.003604  0.000000
  0.000000  0.000000  0.000000

  -0.010856  0.004092  0.000000
  0.004092  0.005567  0.000000
  0.000000  0.000000  0.000000

  -0.003523  0.002232  0.000000
  0.002232  0.002548  0.000000
  0.000000  0.000000  0.000000

  -0.004536  0.003451  0.000000
  0.003451  0.001363  0.000000
  0.000000  0.000000  0.000000

  -0.005145  0.003815  0.000000
  0.003815  0.003632  0.000000
  0.000000  0.000000  0.000000

  -0.006046  0.005064  0.000000
  0.005064  0.002011  0.000000
  0.000000  0.000000  0.000000

  -0.006280  0.006601  0.000000
  0.006601  0.003316  0.000000
  0.000000  0.000000  0.000000

  -0.002849  0.004952  0.000000
  0.004952  0.001990  0.000000
  0.000000  0.000000  0.000000

  -0.002661  0.005308  0.000000
  0.005308  0.000191  0.000000
  0.000000  0.000000  0.000000

  -0.002069  0.003168  0.000000
  0.003168  0.001326  0.000000
  0.000000  0.000000  0.000000

  -0.000771  0.006738  0.000000
  0.006738  0.000123  0.000000
  0.000000  0.000000  0.000000

  -0.001040  0.004793  0.000000
  0.004793  0.000132  0.000000
  0.000000  0.000000  0.000000

  -0.001118  0.000162  0.000000
  0.000162  0.000379  0.000000
  0.000000  0.000000  0.000000

  -0.002165  0.001323  0.000000
  0.001323  0.001425  0.000000
  0.000000  0.000000  0.000000

  -0.003117  0.007300  0.000000
  0.007300  0.001965  0.000000
  0.000000  0.000000  0.000000

  0.007613  0.000017  0.000000
  0.000017  -0.004557  0.000000
  0.000000  0.000000  0.000000

  0.011068  0.003116  0.000000
  0.003116  -0.004189  0.000000
  0.000000  0.000000  0.000000

  0.004431  -0.000222  0.000000
  -0.000222  -0.002524  0.000000
  0.000000  0.000000  0.000000

  0.007653  0.002160  0.000000
  0.002160  -0.003940  0.000000
  0.000000  0.000000  0.000000

  0.002585  0.000501  0.000000
  0.000501  -0.001975  0.000000
  0.000000  0.000000  0.000000

  0.005276  0.002101  0.000000
  0.002101  -0.004510  0.000000
  0.000000  0.000000  0.000000

  0.001792  0.000349  0.000000
  0.000349  -0.003449  0.000000
  0.000000  0.000000  0.000000

  0.005326  0.004116  0.000000
  0.004116  -0.004254  0.000000
  0.000000  0.000000  0.000000

  0.006588  0.005333  0.000000
  0.005333  -0.003821  0.000000
  0.000000  0.000000  0.000000

  0.004044  0.002922  0.000000
  0.002922  -0.003990  0.000000
  0.000000  0.000000  0.000000

  0.005551  0.004076  0.000000
  0.004076  -0.004514  0.000000
  0.000000  0.000000  0.000000

  0.003219  0.002038  0.000000
  0.002038  -0.004503  0.000000
  0.000000  0.000000  0.000000

  0.003502  0.005498  0.000000
  0.005498  -0.003829  0.000000
  0.000000  0.000000  0.000000

  0.003572  0.005699  0.000000
  0.005699  -0.003340  0.000000
  0.000000  0.000000  0.000000

  0.003313  0.007631  0.000000
  0.007631  -0.002806  0.000000
  0.000000  0.000000  0.000000

  0.002263  0.005171  0.000000
  0.005171  -0.003301  0.000000
  0.000000  0.000000  0.000000

  0.001466  0.006974  0.000000
  0.006974  -0.002041  0.000000
  0.000000  0.000000  0.000000

  0.000417  0.006067  0.000000
  0.006067  -0.001642  0.000000
  0.000000  0.000000  0.000000

  0.002418  0.007011  0.000000
  0.007011  -0.002043  0.000000
  0.000000  0.000000  0.000000

  0.000820  0.005565  0.000000
  0.005565  -0.001569  0.000000
  0.000000  0.000000  0.000000

  0.001721  0.004804  0.000000
  0.004804  -0.003060  0.000000
  0.000000  0.000000  0.000000

  0.001541  0.003998  0.000000
  0.003998  -0.002972  0.000000
  0.000000  0.000000  0.000000

  -0.000254  0.004697  0.000000
  0.004697  -0.001525  0.000000
  0.000000  0.000000  0.000000

  0.002400  0.003319  0.000000
  0.003319  -0.004179  0.000000
  0.000000  0.000000  0.000000

  0.001058  0.003648  0.000000
  0.003648  -0.002772  0.000000
  0.000000  0.000000  0.000000

  0.011327  0.003942  0.000000
  0.003942  -0.005810  0.000000
  0.000000  0.000000  0.000000

  0.006280  0.006682  0.000000
  0.006682  -0.003369  0.000000
  0.000000  0.000000  0.000000

  0.003309  0.003782  0.000000
  0.003782  -0.004490  0.000000
  0.000000  0.000000  0.000000

  -0.002100  0.001157  0.000000
  0.001157  0.000480  0.000000
  0.000000  0.000000  0.000000

  -0.001462  0.001118  0.000000
  0.001118  0.000480  0.000000
  0.000000  0.000000  0.000000

  -0.001614  0.001429  0.000000
  0.001429  -0.000049  0.000000
  0.000000  0.000000  0.000000

  -0.025879  0.000589  0.000000
  0.000589  0.006092  0.000000
  0.000000  0.000000  0.000000

  -0.002106  0.003652  0.000000
  0.003652  -0.000112  0.000000
  0.000000  0.000000  0.000000

  -0.000713  0.003070  0.000000
  0.003070  -0.000178  0.000000
  0.000000  0.000000  0.000000

  -0.006268  0.006926  0.000000
  0.006926  0.002028  0.000000
  0.000000  0.000000  0.000000

  -0.002408  0.009633  0.000000
  0.009633  0.001229  0.000000
  0.000000  0.000000  0.000000

  -0.000438  0.003257  0.000000
  0.003257  -0.001455  0.000000
  0.000000  0.000000  0.000000

  -0.004871  0.007933  0.000000
  0.007933  0.001463  0.000000
  0.000000  0.000000  0.000000

  -0.011522  0.005265  0.000000
  0.005265  0.003514  0.000000
  0.000000  0.000000  0.000000

  -0.006126  0.009014  0.000000
  0.009014  0.002290  0.000000
  0.000000  0.000000  0.000000

  -0.012524  0.004998  0.000000
  0.004998  0.003019  0.000000
  0.000000  0.000000  0.000000

  -0.013683  0.005833  0.000000
  0.005833  0.004959  0.000000
  0.000000  0.000000  0.000000

  -0.005024  0.010267  0.000000
  0.010267  0.002260  0.000000
  0.000000  0.000000  0.000000

  -0.002249  0.006960  0.000000
  0.006960  0.000100  0.000000
  0.000000  0.000000  0.000000

  0.000231  0.008683  0.000000
  0.008683  -0.000463  0.000000
  0.000000  0.000000  0.000000

  -0.002871  0.002161  0.000000
  0.002161  0.000541  0.000000
  0.000000  0.000000  0.000000

  -0.001253  0.001903  0.000000
  0.001903  0.000509  0.000000
  0.000000  0.000000  0.000000

  -0.001394  0.002296  0.000000
  0.002296  -0.000520  0.000000
  0.000000  0.000000  0.000000

  -0.000826  0.001276  0.000000
  0.001276  -0.000421  0.000000
  0.000000  0.000000  0.000000

  -0.000341  0.008080  0.000000
  0.008080  -0.000365  0.000000
  0.000000  0.000000  0.000000

  0.002327  0.009665  0.000000
  0.009665  -0.001574  0.000000
  0.000000  0.000000  0.000000

  0.006339  0.006869  0.000000
  0.006869  -0.002880  0.000000
  0.000000  0.000000  0.000000

  0.002458  0.003279  0.000000
  0.003279  -0.004396  0.000000
  0.000000  0.000000  0.000000

  0.003506  0.002379  0.000000
  0.002379  -0.005337  0.000000
  0.000000  0.000000  0.000000

  0.003688  0.004101  0.000000
  0.004101  -0.004457  0.000000
  0.000000  0.000000  0.000000

  0.002929  0.001971  0.000000
  0.001971  -0.005401  0.000000
  0.000000  0.000000  0.000000

  0.003403  0.001509  0.000000
  0.001509  -0.005550  0.000000
  0.000000  0.000000  0.000000

  0.002233  0.000362  0.000000
  0.000362  -0.005944  0.000000
  0.000000  0.000000  0.000000

  0.002612  0.001445  0.000000
  0.001445  -0.005237  0.000000
  0.000000  0.000000  0.000000

  0.004558  0.002833  0.000000
  0.002833  -0.005465  0.000000
  0.000000  0.000000  0.000000

  0.001943  0.002392  0.000000
  0.002392  -0.004010  0.000000
  0.000000  0.000000  0.000000

  0.001011  0.002669  0.000000
  0.002669  -0.002733  0.000000
  0.000000  0.000000  0.000000

  0.000370  0.003878  0.000000
  0.003878  -0.001511  0.000000
  0.000000  0.000000  0.000000

  0.003774  0.001836  0.000000
  0.001836  -0.005788  0.000000
  0.000000  0.000000  0.000000

  0.002541  0.000279  0.000000
  0.000279  -0.005863  0.000000
  0.000000  0.000000  0.000000

  0.011578  0.004785  0.000000
  0.004785  -0.003548  0.000000
  0.000000  0.000000  0.000000

  0.005911  0.008938  0.000000
  0.008938  -0.002357  0.000000
  0.000000  0.000000  0.000000

  0.004380  0.007765  0.000000
  0.007765  -0.001468  0.000000
  0.000000  0.000000  0.000000

  0.012303  0.004577  0.000000
  0.004577  -0.002756  0.000000
  0.000000  0.000000  0.000000

  0.027037  -0.000303  0.000000
  -0.000303  -0.006217  0.000000
  0.000000  0.000000  0.000000

  -0.000895  0.001312  0.000000
  0.001312  -0.000051  0.000000
  0.000000  0.000000  0.000000

  -0.000235  0.010905  0.000000
  0.010905  -0.000099  0.000000
  0.000000  0.000000  0.000000

  -0.000457  0.007285  0.000000
  0.007285  0.000370  0.000000
  0.000000  0.000000  0.000000

  0.001721  0.002331  0.000000
  0.002331  -0.003866  0.000000
  0.000000  0.000000  0.000000

  0.000656  0.002442  0.000000
  0.002442  -0.002505  0.000000
  0.000000  0.000000  0.000000

  -0.008925  0.006975  0.000000
  0.006975  0.002852  0.000000
  0.000000  0.000000  0.000000

  0.002369  0.001322  0.000000
  0.001322  -0.005266  0.000000
  0.000000  0.000000  0.000000

  0.057396  0.017248  0.000000
  0.017248  0.000000  0.000000
  0.000000  0.000000  0.000000

  0.045584  0.002835  0.000000
  0.002835  -0.015157  0.000000
  0.000000  0.000000  0.000000

  0.055754  0.003436  0.000000
  0.003436  -0.018091  0.000000
  0.000000  0.000000  0.000000

  0.035632  0.002969  0.000000
  0.002969  -0.011902  0.000000
  0.000000  0.000000  0.000000

  0.014046  0.005556  0.000000
  0.005556  -0.005492  0.000000
  0.000000  0.000000  0.000000

  0.061246  0.006895  0.000000
  0.006895  -0.017549  0.000000
  0.000000  0.000000  0.000000

  0.040724  0.002876  0.000000
  0.002876  -0.013645  0.000000
  0.000000  0.000000  0.000000

  0.004689  0.010403  0.000000
  0.010403  -0.002226  0.000000
  0.000000  0.000000  0.000000

  0.050534  0.002939  0.000000
  0.002939  -0.016747  0.000000
  0.000000  0.000000  0.000000

  0.031107  0.003251  0.000000
  0.003251  -0.009825  0.000000
  0.000000  0.000000  0.000000

  0.001141  0.001262  0.000000
  0.001262  -0.002463  0.000000
  0.000000  0.000000  0.000000

  0.021584  0.002474  0.000000
  0.002474  -0.007803  0.000000
  0.000000  0.000000  0.000000

  0.021903  0.004872  0.000000
  0.004872  -0.005465  0.000000
  0.000000  0.000000  0.000000

  0.021710  0.002019  0.000000
  0.002019  -0.005181  0.000000
  0.000000  0.000000  0.000000

  0.009846  0.008314  0.000000
  0.008314  -0.003647  0.000000
  0.000000  0.000000  0.000000

  0.010408  0.006247  0.000000
  0.006247  -0.003142  0.000000
  0.000000  0.000000  0.000000

  0.028475  0.002811  0.000000
  0.002811  -0.009498  0.000000
  0.000000  0.000000  0.000000

  0.028475  0.006348  0.000000
  0.006348  -0.009408  0.000000
  0.000000  0.000000  0.000000

  0.012615  0.006212  0.000000
  0.006212  -0.004293  0.000000
  0.000000  0.000000  0.000000

  0.025591  0.006070  0.000000
  0.006070  -0.008425  0.000000
  0.000000  0.000000  0.000000

  0.012617  0.008569  0.000000
  0.008569  -0.004261  0.000000
  0.000000  0.000000  0.000000

  0.025591  0.002945  0.000000
  0.002945  -0.008536  0.000000
  0.000000  0.000000  0.000000

  -0.002519  0.008861  0.000000
  0.008861  0.001084  0.000000
  0.000000  0.000000  0.000000

  -0.000677  0.008440  0.000000
  0.008440  0.000304  0.000000
  0.000000  0.000000  0.000000

  0.014436  0.006381  0.000000
  0.006381  -0.004780  0.000000
  0.000000  0.000000  0.000000

  -0.010660  0.008501  0.000000
  0.008501  0.004028  0.000000
  0.000000  0.000000  0.000000

  0.034515  0.003019  0.000000
  0.003019  -0.011513  0.000000
  0.000000  0.000000  0.000000

  0.034515  0.006301  0.000000
  0.006301  -0.011487  0.000000
  0.000000  0.000000  0.000000

  0.015987  0.006367  0.000000
  0.006367  -0.005252  0.000000
  0.000000  0.000000  0.000000

  0.031551  0.006418  0.000000
  0.006418  -0.010463  0.000000
  0.000000  0.000000  0.000000

  0.015988  0.008077  0.000000
  0.008077  -0.005406  0.000000
  0.000000  0.000000  0.000000

  0.031551  0.002863  0.000000
  0.002863  -0.010524  0.000000
  0.000000  0.000000  0.000000

  -0.000755  0.008210  0.000000
  0.008210  0.000288  0.000000
  0.000000  0.000000  0.000000

  -0.000756  0.007596  0.000000
  0.007596  0.000334  0.000000
  0.000000  0.000000  0.000000

  -0.001053  0.007984  0.000000
  0.007984  0.000363  0.000000
  0.000000  0.000000  0.000000

  0.014435  0.008323  0.000000
  0.008323  -0.004891  0.000000
  0.000000  0.000000  0.000000

  -0.017254  0.007605  0.000000
  0.007605  0.005805  0.000000
  0.000000  0.000000  0.000000

  -0.018414  0.007729  0.000000
  0.007729  0.006049  0.000000
  0.000000  0.000000  0.000000

  0.017458  0.005878  0.000000
  0.005878  -0.005329  0.000000
  0.000000  0.000000  0.000000

  0.036665  0.003354  0.000000
  0.003354  -0.011651  0.000000
  0.000000  0.000000  0.000000

  0.036764  0.005505  0.000000
  0.005505  -0.012218  0.000000
  0.000000  0.000000  0.000000

  0.017836  0.005080  0.000000
  0.005080  -0.002565  0.000000
  0.000000  0.000000  0.000000

  0.017829  0.008719  0.000000
  0.008719  -0.007840  0.000000
  0.000000  0.000000  0.000000

  0.034783  0.000985  0.000000
  0.000985  -0.010833  0.000000
  0.000000  0.000000  0.000000

  0.000372  0.002411  0.000000
  0.002411  -0.001475  0.000000
  0.000000  0.000000  0.000000

  0.000642  0.010827  0.000000
  0.010827  -0.000655  0.000000
  0.000000  0.000000  0.000000

  0.035004  0.002371  0.000000
  0.002371  -0.007620  0.000000
  0.000000  0.000000  0.000000

  0.009650  0.008834  0.000000
  0.008834  -0.002976  0.000000
  0.000000  0.000000  0.000000

  -0.000567  0.006466  0.000000
  0.006466  0.000383  0.000000
  0.000000  0.000000  0.000000

  -0.019667  0.004181  0.000000
  0.004181  0.005716  0.000000
  0.000000  0.000000  0.000000

  -0.000676  0.006839  0.000000
  0.006839  0.000715  0.000000
  0.000000  0.000000  0.000000

  -0.016936  0.008567  0.000000
  0.008567  0.006021  0.000000
  0.000000  0.000000  0.000000

  0.017456  0.007596  0.000000
  0.007596  -0.006285  0.000000
  0.000000  0.000000  0.000000

  -0.001046  0.005487  0.000000
  0.005487  0.002296  0.000000
  0.000000  0.000000  0.000000

  -0.001046  0.005532  0.000000
  0.005532  -0.001871  0.000000
  0.000000  0.000000  0.000000

  -0.032747  0.003385  0.000000
  0.003385  0.011460  0.000000
  0.000000  0.000000  0.000000

  -0.008989  0.010693  0.000000
  0.010693  0.001925  0.000000
  0.000000  0.000000  0.000000

  -0.002527  0.006061  0.000000
  0.006061  0.001391  0.000000
  0.000000  0.000000  0.000000

  -0.001052  0.007756  0.000000
  0.007756  0.000267  0.000000
  0.000000  0.000000  0.000000

  -0.020002  0.007558  0.000000
  0.007558  0.006792  0.000000
  0.000000  0.000000  0.000000

  -0.020003  0.005400  0.000000
  0.005400  0.006003  0.000000
  0.000000  0.000000  0.000000

  -0.036622  0.005916  0.000000
  0.005916  0.012126  0.000000
  0.000000  0.000000  0.000000

  -0.038533  0.004760  0.000000
  0.004760  0.012912  0.000000
  0.000000  0.000000  0.000000

  -0.018412  0.006000  0.000000
  0.006000  0.005943  0.000000
  0.000000  0.000000  0.000000

  -0.033511  0.006227  0.000000
  0.006227  0.011234  0.000000
  0.000000  0.000000  0.000000

  -0.017138  0.006638  0.000000
  0.006638  0.005288  0.000000
  0.000000  0.000000  0.000000

  -0.033509  0.001774  0.000000
  0.001774  0.010344  0.000000
  0.000000  0.000000  0.000000

  -0.045449  0.002992  0.000000
  0.002992  0.015853  0.000000
  0.000000  0.000000  0.000000

  -0.050358  0.003207  0.000000
  0.003207  0.017477  0.000000
  0.000000  0.000000  0.000000

  -0.030426  0.001355  0.000000
  0.001355  0.009675  0.000000
  0.000000  0.000000  0.000000

  -0.036624  0.002225  0.000000
  0.002225  0.011305  0.000000
  0.000000  0.000000  0.000000

  -0.056056  0.003930  0.000000
  0.003930  0.019014  0.000000
  0.000000  0.000000  0.000000

  -0.038337  0.003510  0.000000
  0.003510  0.011662  0.000000
  0.000000  0.000000  0.000000

  -0.061428  0.007336  0.000000
  0.007336  0.018270  0.000000
  0.000000  0.000000  0.000000

  -0.035901  0.002834  0.000000
  0.002834  0.007799  0.000000
  0.000000  0.000000  0.000000

  -0.030657  0.005574  0.000000
  0.005574  0.010316  0.000000
  0.000000  0.000000  0.000000

  -0.017026  0.008906  0.000000
  0.008906  0.004836  0.000000
  0.000000  0.000000  0.000000

  -0.040711  0.003789  0.000000
  0.003789  0.014287  0.000000
  0.000000  0.000000  0.000000

  -0.020215  0.003933  0.000000
  0.003933  0.001892  0.000000
  0.000000  0.000000  0.000000

  -0.035473  0.000877  0.000000
  0.000877  0.012223  0.000000
  0.000000  0.000000  0.000000

  -0.020076  0.008032  0.000000
  0.008032  0.008719  0.000000
  0.000000  0.000000  0.000000

  -0.009472  -0.002431  0.000000
  -0.002431  0.001013  0.000000
  0.000000  0.000000  0.000000

  0.010048  -0.002731  0.000000
  -0.002731  -0.001562  0.000000
  0.000000  0.000000  0.000000

  -0.019133  0.002431  0.000000
  0.002431  0.004750  0.000000
  0.000000  0.000000  0.000000

  0.001201  0.000824  0.000000
  0.000824  -0.004096  0.000000
  0.000000  0.000000  0.000000

  -0.056958  0.017241  0.000000
  0.017241  0.000000  0.000000
  0.000000  0.000000  0.000000

  -0.019472  0.003573  0.000000
  0.003573  0.007574  0.000000
  0.000000  0.000000  0.000000

  -0.031336  0.004187  0.000000
  0.004187  0.009417  0.000000
  0.000000  0.000000  0.000000

  -0.000667  0.008753  0.000000
  0.008753  0.000000  0.000000
  0.000000  0.000000  0.000000

  -0.020096  0.009186  0.000000
  0.009186  0.000000  0.000000
  0.000000  0.000000  0.000000

  0.017236  0.009344  0.000000
  0.009344  0.000000  0.000000
  0.000000  0.000000  0.000000

  -0.027463  0.000362  0.000000
  0.000362  0.009433  0.000000
  0.000000  0.000000  0.000000

  0.001477  0.001036  0.000000
  0.001036  -0.003946  0.000000
  0.000000  0.000000  0.000000

  -0.000282  0.001975  0.000000
  0.001975  -0.001295  0.000000
  0.000000  0.000000  0.000000

  0.000564  0.000955  0.000000
  0.000955  -0.001228  0.000000
  0.000000  0.000000  0.000000

  -0.000297  0.001809  0.000000
  0.001809  -0.000516  0.000000
  0.000000  0.000000  0.000000

  -0.000072  0.000597  0.000000
  0.000597  -0.000395  0.000000
  0.000000  0.000000  0.000000

  0.000578  0.000996  0.000000
  0.000996  -0.002399  0.000000
  0.000000  0.000000  0.000000

  -0.000139  0.000784  0.000000
  0.000784  -0.000753  0.000000
  0.000000  0.000000  0.000000

  0.002010  0.000277  0.000000
  0.000277  -0.005489  0.000000
  0.000000  0.000000  0.000000

  0.001861  0.000266  0.000000
  0.000266  -0.005307  0.000000
  0.000000  0.000000  0.000000

  0.007608  0.006172  0.000000
  0.006172  -0.002249  0.000000
  0.000000  0.000000  0.000000
POINT_DATA 126
VECTORS displacements double
  0.000000  0.000000  0.000000
  0.057720  -0.034944  0.000000
  0.000000  0.000000  0.000000
  0.054820  -0.039293  0.000000
  0.018596  -0.017001  0.000000
  0.119970  -0.083705  0.000000
  0.000000  0.000000  0.000000
  0.039589  -0.061966  0.000000
  0.100072  -0.101693  0.000000
  0.000808  -0.021202  0.000000
  0.176775  -0.153694  0.000000
  0.000000  0.000000  0.000000
  0.059570  -0.131010  0.000000
  -0.017172  -0.018620  0.000000
  0.002846  -0.090642  0.000000
  0.136667  -0.181401  0.000000
  -0.034973  -0.061676  0.000000
  0.227807  -0.244854  0.000000
  0.000000  0.000000  0.000000
  0.003925  -0.171050  0.000000
  0.078012  -0.221410  0.000000
  -0.052267  -0.038770  0.000000
  -0.052404  -0.130601  0.000000
  0.170192  -0.280961  0.000000
  -0.093204  -0.100797  0.000000
  0.273863  -0.355312  0.000000
  0.000000  0.000000  0.000000
  0.004644  -0.271120  0.000000
  -0.057317  -0.034448  0.000000
  -0.068383  -0.220793  0.000000
  0.102155  -0.337930  0.000000
  0.200973  -0.388683  0.000000
  -0.118480  -0.082408  0.000000
  -0.127671  -0.180302  0.000000
  -0.174157  -0.150520  0.000000
  -0.082775  -0.330092  0.000000
  0.005362  -0.389388  0.000000
  0.315119  -0.483883  0.000000
  -0.159179  -0.279651  0.000000
  -0.224623  -0.239091  0.000000
  0.157702  -0.517401  0.000000
  -0.095406  -0.455968  0.000000
  -0.187615  -0.396828  0.000000
  0.007728  -0.524865  0.000000
  0.348304  -0.625396  0.000000
  -0.270145  -0.346465  0.000000
  0.228343  -0.664385  0.000000
  0.095283  -0.636111  0.000000
  -0.213171  -0.530036  0.000000
  -0.086001  -0.612309  0.000000
  -0.310813  -0.470824  0.000000
  0.380059  -0.779784  0.000000
  0.165779  -0.780121  0.000000
  -0.000291  -0.761365  0.000000
  -0.238602  -0.649352  0.000000
  -0.346396  -0.609863  0.000000
  -0.156605  -0.764270  0.000000
  0.241134  -0.931309  0.000000
  0.406284  -0.948164  0.000000
  0.089161  -0.914724  0.000000
  -0.083427  -0.902072  0.000000
  -0.377460  -0.761226  0.000000
  -0.239096  -0.912097  0.000000
  0.498745  -1.082225  0.000000
  0.327191  -1.087035  0.000000
  0.163255  -1.072143  0.000000
  0.005429  -1.059310  0.000000