# vtk DataFile Version 2.0
geometrically linear steady-state plane stress analysis
ASCII

DATASET UNSTRUCTURED_GRID
POINTS 1096 double
  -5.042670  -1.357980  0.000000
  -5.001717  -1.495384  0.000000
  -5.042670  -1.163360  0.000000
  -4.920100  -1.279519  0.000000
  -4.899466  -1.085756  0.000000
  -4.831258  -1.427000  0.000000
  -5.042670  -0.968740  0.000000
  -4.922011  -1.633495  0.000000
  -4.772601  -1.223934  0.000000
  -4.680946  -1.362531  0.000000
  -4.888887  -0.890508  0.000000
  -4.735467  -1.574013  0.000000
  -4.750905  -1.017240  0.000000
  -4.826858  -1.777012  0.000000
  -5.042670  -0.774130  0.000000
  -4.619123  -1.163421  0.000000
  -4.571808  -1.513758  0.000000
  -4.731469  -0.817108  0.000000
  -4.512995  -1.302465  0.000000
  -4.597913  -0.954576  0.000000
  -4.881397  -0.695814  0.000000
  -4.633025  -1.723298  0.000000
  -5.042670  -0.579510  0.000000
  -4.723096  -1.924705  0.000000
  -4.459501  -1.101792  0.000000
  -4.459561  -1.666784  0.000000
  -4.394964  -1.456369  0.000000
  -4.566290  -0.756168  0.000000
  -4.719916  -0.615902  0.000000
  -4.338417  -1.267251  0.000000
  -4.525195  -1.874973  0.000000
  -4.875211  -0.501188  0.000000
  -4.425835  -0.911952  0.000000
  -4.304701  -1.051364  0.000000
  -5.042670  -0.384900  0.000000
  -4.613552  -2.075592  0.000000
  -4.277580  -1.612310  0.000000
  -4.343956  -1.822139  0.000000
  -4.410380  -0.708097  0.000000
  -4.217389  -1.402496  0.000000
  -4.547889  -0.551940  0.000000
  -4.711584  -0.417690  0.000000
  -4.172362  -1.195353  0.000000
  -4.869522  -0.306492  0.000000
  -4.413062  -2.028882  0.000000
  -4.255269  -0.850444  0.000000
  -4.111806  -1.554505  0.000000
  -4.125233  -1.016413  0.000000
  -4.499527  -2.229062  0.000000
  -5.042670  -0.190280  0.000000
  -4.391404  -0.511132  0.000000
  -4.157810  -1.773490  0.000000
  -4.533557  -0.355118  0.000000
  -4.226709  -1.980805  0.000000
  -4.233340  -0.656196  0.000000
  -4.038092  -1.351799  0.000000
  -4.702612  -0.221143  0.000000
  -3.992946  -1.173922  0.000000
  -4.085870  -0.814213  0.000000
  -4.297269  -2.184660  0.000000
  -4.863808  -0.111684  0.000000
  -4.370924  -0.316844  0.000000
  -3.969349  -1.731532  0.000000
  -3.924652  -1.527810  0.000000
  -4.208217  -0.462456  0.000000
  -4.041234  -1.938578  0.000000
  -5.042670  0.004340  0.000000
  -4.381653  -2.384605  0.000000
  -3.943050  -0.974233  0.000000
  -4.518175  -0.160182  0.000000
  -4.113655  -2.145045  0.000000
  -4.050343  -0.611243  0.000000
  -3.857624  -1.324723  0.000000
  -4.692317  -0.025805  0.000000
  -3.919505  -0.764923  0.000000
  -3.813869  -1.115747  0.000000
  -4.857582  0.083155  0.000000
  -4.178222  -2.341912  0.000000
  -3.859898  -1.894044  0.000000
  -4.179600  -0.274096  0.000000
  -4.344172  -0.125042  0.000000
  -3.795758  -1.706884  0.000000
  -3.735841  -1.498193  0.000000
  -3.921952  -2.104500  0.000000
  -4.021585  -0.409364  0.000000
  -3.766162  -0.915251  0.000000
  -4.260031  -2.541661  0.000000
  -5.042670  0.198950  0.000000
  -4.500426  0.033000  0.000000
  -3.895032  -0.559836  0.000000
  -3.983133  -2.295412  0.000000
  -3.672801  -1.274186  0.000000
  -4.679859  0.168244  0.000000
  -3.739485  -0.712125  0.000000
  -4.850100  0.277886  0.000000
  -4.055885  -2.499907  0.000000
  -3.625870  -1.077771  0.000000
  -4.141009  -0.094743  0.000000
  -3.731493  -2.054892  0.000000
  -3.607992  -1.659786  0.000000
  -3.993799  -0.212652  0.000000
  -4.300195  0.064099  0.000000
  -3.650658  -1.853126  0.000000
  -3.562951  -1.450284  0.000000
  -3.607126  -0.881289  0.000000
  -4.474851  0.199579  0.000000
  -3.788810  -2.257553  0.000000
  -3.828546  -0.361886  0.000000
  -4.134620  -2.699477  0.000000
  -5.042670  0.393570  0.000000
  -3.510108  -1.249633  0.000000
  -4.650444  0.337234  0.000000
  -3.858259  -2.458786  0.000000
  -3.674807  -0.520961  0.000000
  -3.470227  -1.049023  0.000000
  -3.541933  -0.690055  0.000000
  -3.940409  -2.654974  0.000000
  -3.958216  -0.024734  0.000000
  -4.839363  0.472110  0.000000
  -3.626300  -2.226975  0.000000
  -4.094697  0.111318  0.000000
  -3.538522  -2.031077  0.000000
  -3.421002  -1.603534  0.000000
  -3.792804  -0.174165  0.000000
  -3.461337  -1.828827  0.000000
  -4.270569  0.256265  0.000000
  -3.373074  -1.410590  0.000000
  -3.678909  -2.429532  0.000000
  -4.435463  0.390198  0.000000
  -3.415184  -0.847420  0.000000
  -3.630068  -0.323328  0.000000
  -5.042670  0.588180  0.000000
  -4.005234  -2.857279  0.000000
  -3.321661  -1.200378  0.000000
  -3.494445  -0.495407  0.000000
  -4.622142  0.529808  0.000000
  -3.737695  -2.627898  0.000000
  -3.743488  -0.013590  0.000000
  -3.280838  -0.991406  0.000000
  -3.432433  -2.200193  0.000000
  -3.889370  0.151608  0.000000
  -4.050361  0.285374  0.000000
  -3.291934  -1.769459  0.000000
  -3.517665  -2.396306  0.000000
  -3.346188  -2.005398  0.000000
  -3.343967  -0.654434  0.000000
  -3.807552  -2.813871  0.000000
  -4.823379  0.659671  0.000000
  -3.587360  -0.162405  0.000000
  -3.232072  -1.562371  0.000000
  -4.214570  0.436621  0.000000
  -3.576443  -2.602473  0.000000
  -3.184434  -1.352765  0.000000
  -3.175222  -1.180523  0.000000
  -3.428829  -0.306146  0.000000
  -4.390468  0.578408  0.000000
  -3.213553  -0.828534  0.000000
  -5.042670  0.782800  0.000000
  -3.871605  -3.013350  0.000000
  -3.287978  -0.475300  0.000000
  -3.615235  -2.773699  0.000000
  -4.575309  0.708224  0.000000
  -3.338221  -2.392867  0.000000
  -3.838830  0.338463  0.000000
  -3.534527  0.028597  0.000000
  -3.673786  0.189193  0.000000
  -3.084230  -0.994635  0.000000
  -3.992661  0.479942  0.000000
  -3.388380  -2.557406  0.000000
  -3.145098  -0.634973  0.000000
  -3.067415  -1.695656  0.000000
  -3.384732  -0.110445  0.000000
  -3.675073  -2.974156  0.000000
  -3.039999  -1.509107  0.000000
  -4.746980  0.841362  0.000000
  -4.158922  0.625233  0.000000
  -3.194531  -2.267168  0.000000
  -3.093903  -1.985499  0.000000
  -3.426157  -2.732650  0.000000
  -4.333755  0.756762  0.000000
  -3.223550  -0.262110  0.000000
  -2.968359  -1.248717  0.000000
  -3.009650  -0.806618  0.000000
  -3.106028  -0.436671  0.000000
  -3.495716  0.223800  0.000000
  -3.482559  -2.933345  0.000000
  -4.489370  0.899096  0.000000
  -3.201247  -2.509401  0.000000
  -3.615228  0.367554  0.000000
  -3.770839  0.521123  0.000000
  -3.328249  0.078445  0.000000
  -3.929993  0.669735  0.000000
  -2.880915  -0.981173  0.000000
  -3.239569  -2.691929  0.000000
  -4.098619  0.803225  0.000000
  -2.895912  -1.820272  0.000000
  -3.172288  -0.076705  0.000000
  -2.945354  -0.584760  0.000000
  -2.848094  -1.531992  0.000000
  -3.043296  -0.249994  0.000000
  -3.293574  -2.892635  0.000000
  -4.246940  0.951198  0.000000
  -2.949953  -2.257802  0.000000
  -2.878204  -2.055511  0.000000
  -2.761270  -1.332774  0.000000
  -3.013419  -2.456605  0.000000
  -3.271354  0.220195  0.000000
  -2.808802  -0.753953  0.000000
  -2.897137  -0.411316  0.000000
  -3.397241  0.392925  0.000000
  -2.736451  -1.123454  0.000000
  -3.550019  0.560331  0.000000
  -3.117436  0.078839  0.000000
  -3.054916  -2.652437  0.000000
  -3.704077  0.711876  0.000000
  -3.868594  0.847231  0.000000
  -2.713186  -1.699238  0.000000
  -2.744435  -1.891910  0.000000
  -3.107474  -2.853053  0.000000
  -2.962633  -0.064825  0.000000
  -2.656364  -1.472223  0.000000
  -4.012874  0.999222  0.000000
  -2.670295  -0.922986  0.000000
  -2.742635  -0.557928  0.000000
  -2.827523  -0.235439  0.000000
  -3.223143  0.415193  0.000000
  -2.597319  -1.289027  0.000000
  -2.756175  -2.227231  0.000000
  -2.821821  -2.421376  0.000000
  -2.880593  -2.616438  0.000000
  -3.058411  0.269806  0.000000
  -2.658270  -2.038985  0.000000
  -3.330382  0.598086  0.000000
  -2.601274  -0.724968  0.000000
  -3.480928  0.751841  0.000000
  -3.642626  0.888922  0.000000
  -2.693695  -0.356863  0.000000
  -2.532973  -1.091084  0.000000
  -2.923699  -2.815232  0.000000
  -2.575045  -1.847858  0.000000
  -2.906084  0.129057  0.000000
  -2.528624  -1.645663  0.000000
  -3.784293  1.044007  0.000000
  -2.748850  -0.023150  0.000000
  -2.549264  -0.521297  0.000000
  -2.452405  -1.448679  0.000000
  -2.469157  -0.891180  0.000000
  -2.662959  -2.408802  0.000000
  -2.722170  -2.600003  0.000000
  -2.633839  -0.167102  0.000000
  -3.008757  0.465487  0.000000
  -2.559055  -2.227429  0.000000
  -2.399676  -1.243093  0.000000
  -2.759403  -2.782933  0.000000
  -3.420036  0.928545  0.000000
  -3.112035  0.634911  0.000000
  -3.260300  0.790076  0.000000
  -2.421323  -0.692177  0.000000
  -2.844957  0.320628  0.000000
  -2.455793  -2.017497  0.000000
  -3.559886  1.086087  0.000000
  -2.399411  -1.817671  0.000000
  -2.483075  -0.323564  0.000000
  -2.688710  0.168990  0.000000
  -2.318949  -1.050273  0.000000
  -2.325779  -1.618298  0.000000
  -2.580978  -2.593479  0.000000
  -2.269595  -1.418105  0.000000
  -2.360957  -0.496619  0.000000
  -2.539041  0.009358  0.000000
  -2.614147  -2.755711  0.000000
  -2.265827  -0.845420  0.000000
  -3.200484  0.966518  0.000000
  -2.787274  0.513915  0.000000
  -2.420929  -0.124459  0.000000
  -3.041995  0.827142  0.000000
  -2.193581  -1.221063  0.000000
  -2.894864  0.671269  0.000000
  -3.339133  1.125895  0.000000
  -2.414344  -2.431415  0.000000
  -2.318947  -2.179830  0.000000
  -2.256599  -1.975964  0.000000
  -2.633947  0.362568  0.000000
  -2.199313  -1.770378  0.000000
  -2.212923  -0.658063  0.000000
  -2.297154  -0.303461  0.000000
  -2.443335  -2.612686  0.000000
  -2.487176  -2.733522  0.000000
  -2.142489  -1.022414  0.000000
  -2.487662  0.208025  0.000000
  -2.121419  -1.581260  0.000000
  -2.349436  -2.589501  0.000000
  -2.333574  0.056439  0.000000
  -2.150049  -0.465591  0.000000
  -2.072228  -0.827814  0.000000
  -2.046829  -1.383814  0.000000
  -2.378471  -2.715687  0.000000
  -2.983967  1.003389  0.000000
  -2.212864  -2.340406  0.000000
  -3.121978  1.163912  0.000000
  -2.826148  0.863702  0.000000
[...]
CELL_DATA 2014
TENSORS strain double
  -0.161716  0.039046  0.000000
  0.039046  0.034296  0.000000
  0.000000  0.000000  0.000000

  -0.006748  -0.004334  0.000000
  -0.004334  0.005986  0.000000
  0.000000  0.000000  0.000000

  0.001580  -0.006405  0.000000
  -0.006405  -0.002169  0.000000
  0.000000  0.000000  0.000000

  0.005035  -0.000579  0.000000
  -0.000579  -0.006182  0.000000
  0.000000  0.000000  0.000000

  -0.010452  0.000934  0.000000
  0.000934  0.008044  0.000000
  0.000000  0.000000  0.000000

  -0.002623  -0.006646  0.000000
  -0.006646  0.002025  0.000000
  0.000000  0.000000  0.000000

  0.004491  -0.004026  0.000000
  -0.004026  -0.005267  0.000000
  0.000000  0.000000  0.000000

  -0.013886  0.006593  0.000000
  0.006593  0.008682  0.000000
  0.000000  0.000000  0.000000

  -0.004753  -0.005873  0.000000
  -0.005873  0.004136  0.000000
  0.000000  0.000000  0.000000

  0.003318  -0.005362  0.000000
  -0.005362  -0.003931  0.000000
  0.000000  0.000000  0.000000

  -0.008468  -0.002122  0.000000
  -0.002122  0.007203  0.000000
  0.000000  0.000000  0.000000

  -0.000466  -0.006847  0.000000
  -0.006847  -0.000080  0.000000
  0.000000  0.000000  0.000000

  0.005123  -0.002280  0.000000
  -0.002280  -0.006028  0.000000
  0.000000  0.000000  0.000000

  -0.020064  0.012102  0.000000
  0.012102  0.007583  0.000000
  0.000000  0.000000  0.000000

  -0.005774  -0.005159  0.000000
  -0.005159  0.005028  0.000000
  0.000000  0.000000  0.000000

  0.002435  -0.005963  0.000000
  -0.005963  -0.003070  0.000000
  0.000000  0.000000  0.000000

  -0.009391  -0.000736  0.000000
  -0.000736  0.007686  0.000000
  0.000000  0.000000  0.000000

  -0.001593  -0.006795  0.000000
  -0.006795  0.001004  0.000000
  0.000000  0.000000  0.000000

  0.004957  -0.003136  0.000000
  -0.003136  -0.005727  0.000000
  0.000000  0.000000  0.000000

  -0.011554  0.003109  0.000000
  0.003109  0.008079  0.000000
  0.000000  0.000000  0.000000

  -0.003723  -0.006310  0.000000
  -0.006310  0.003095  0.000000
  0.000000  0.000000  0.000000

  0.003976  -0.004757  0.000000
  -0.004757  -0.004640  0.000000
  0.000000  0.000000  0.000000

  -0.007676  -0.003293  0.000000
  -0.003293  0.006627  0.000000
  0.000000  0.000000  0.000000

  0.000635  -0.006699  0.000000
  -0.006699  -0.001173  0.000000
  0.000000  0.000000  0.000000

  0.005185  -0.001377  0.000000
  -0.001377  -0.006159  0.000000
  0.000000  0.000000  0.000000

  -0.037360  0.022631  0.000000
  0.022631  0.009643  0.000000
  0.000000  0.000000  0.000000

  -0.006306  -0.004721  0.000000
  -0.004721  0.005468  0.000000
  0.000000  0.000000  0.000000

  0.001958  -0.006233  0.000000
  -0.006233  -0.002606  0.000000
  0.000000  0.000000  0.000000

  0.004999  -0.000434  0.000000
  -0.000434  -0.006001  0.000000
  0.000000  0.000000  0.000000

  -0.009895  0.000035  0.000000
  0.000035  0.007876  0.000000
  0.000000  0.000000  0.000000

  -0.002111  -0.006736  0.000000
  -0.006736  0.001530  0.000000
  0.000000  0.000000  0.000000

  0.004742  -0.003595  0.000000
  -0.003595  -0.005490  0.000000
  0.000000  0.000000  0.000000

  -0.012371  0.004663  0.000000
  0.004663  0.008074  0.000000
  0.000000  0.000000  0.000000

  -0.004255  -0.006084  0.000000
  -0.006084  0.003613  0.000000
  0.000000  0.000000  0.000000

  0.003645  -0.005062  0.000000
  -0.005062  -0.004288  0.000000
  0.000000  0.000000  0.000000

  -0.008093  -0.002720  0.000000
  -0.002720  0.006930  0.000000
  0.000000  0.000000  0.000000

  0.000089  -0.006804  0.000000
  -0.006804  -0.000650  0.000000
  0.000000  0.000000  0.000000

  0.005181  -0.001811  0.000000
  -0.001811  -0.006088  0.000000
  0.000000  0.000000  0.000000

  -0.015734  0.009211  0.000000
  0.009211  0.008166  0.000000
  0.000000  0.000000  0.000000

  -0.005242  -0.005563  0.000000
  -0.005563  0.004597  0.000000
  0.000000  0.000000  0.000000

  0.002904  -0.005667  0.000000
  -0.005667  -0.003494  0.000000
  0.000000  0.000000  0.000000

  -0.008936  -0.001443  0.000000
  -0.001443  0.007460  0.000000
  0.000000  0.000000  0.000000

  -0.001004  -0.006854  0.000000
  -0.006854  0.000450  0.000000
  0.000000  0.000000  0.000000

  0.005072  -0.002711  0.000000
  -0.002711  -0.005975  0.000000
  0.000000  0.000000  0.000000

  -0.011005  0.001962  0.000000
  0.001962  0.008129  0.000000
  0.000000  0.000000  0.000000

  -0.003178  -0.006526  0.000000
  -0.006526  0.002558  0.000000
  0.000000  0.000000  0.000000

  0.004248  -0.004391  0.000000
  -0.004391  -0.005004  0.000000
  0.000000  0.000000  0.000000

  -0.007185  -0.003902  0.000000
  -0.003902  0.006294  0.000000
  0.000000  0.000000  0.000000

  0.001166  -0.006558  0.000000
  -0.006558  -0.001702  0.000000
  0.000000  0.000000  0.000000

  0.005103  -0.000952  0.000000
  -0.000952  -0.006162  0.000000
  0.000000  0.000000  0.000000

  -0.066172  0.030333  0.000000
  0.030333  0.012868  0.000000
  0.000000  0.000000  0.000000

  -0.006467  -0.004579  0.000000
  -0.004579  0.005668  0.000000
  0.000000  0.000000  0.000000

  0.001862  -0.006266  0.000000
  -0.006266  -0.002428  0.000000
  0.000000  0.000000  0.000000

  0.004926  -0.000448  0.000000
  -0.000448  -0.006270  0.000000
  0.000000  0.000000  0.000000

  -0.010245  0.000472  0.000000
  0.000472  0.008311  0.000000
  0.000000  0.000000  0.000000

  -0.002296  -0.006740  0.000000
  -0.006740  0.001743  0.000000
  0.000000  0.000000  0.000000

  0.004658  -0.003770  0.000000
  -0.003770  -0.005382  0.000000
  0.000000  0.000000  0.000000

  -0.013401  0.005466  0.000000
  0.005466  0.008381  0.000000
  0.000000  0.000000  0.000000

  -0.004489  -0.005905  0.000000
  -0.005905  0.003835  0.000000
  0.000000  0.000000  0.000000

  0.003420  -0.005279  0.000000
  -0.005279  -0.004089  0.000000
  0.000000  0.000000  0.000000

  -0.008353  -0.002506  0.000000
  -0.002506  0.007274  0.000000
  0.000000  0.000000  0.000000

  -0.000203  -0.006827  0.000000
  -0.006827  -0.000358  0.000000
  0.000000  0.000000  0.000000

  0.005204  -0.002058  0.000000
  -0.002058  -0.006171  0.000000
  0.000000  0.000000  0.000000

  -0.016692  0.010995  0.000000
  0.010995  0.007832  0.000000
  0.000000  0.000000  0.000000

  -0.005568  -0.005336  0.000000
  -0.005336  0.004808  0.000000
  0.000000  0.000000  0.000000

  0.002677  -0.005835  0.000000
  -0.005835  -0.003283  0.000000
  0.000000  0.000000  0.000000

  -0.009198  -0.001137  0.000000
  -0.001137  0.007826  0.000000
  0.000000  0.000000  0.000000

  -0.001240  -0.006867  0.000000
  -0.006867  0.000686  0.000000
  0.000000  0.000000  0.000000

  0.004990  -0.002915  0.000000
  -0.002915  -0.005793  0.000000
  0.000000  0.000000  0.000000

  -0.011325  0.002624  0.000000
  0.002624  0.008556  0.000000
  0.000000  0.000000  0.000000

  -0.003435  -0.006432  0.000000
  -0.006432  0.002854  0.000000
  0.000000  0.000000  0.000000

  0.004137  -0.004505  0.000000
  -0.004505  -0.004794  0.000000
  0.000000  0.000000  0.000000

  -0.007492  -0.003577  0.000000
  -0.003577  0.006552  0.000000
  0.000000  0.000000  0.000000

  0.000789  -0.006643  0.000000
  -0.006643  -0.001377  0.000000
  0.000000  0.000000  0.000000

  0.005171  -0.001200  0.000000
  -0.001200  -0.006337  0.000000
  0.000000  0.000000  0.000000

  -0.026310  0.016536  0.000000
  0.016536  0.008462  0.000000
  0.000000  0.000000  0.000000

  -0.006081  -0.004989  0.000000
  -0.004989  0.005367  0.000000
  0.000000  0.000000  0.000000

  0.002300  -0.006051  0.000000
  -0.006051  -0.002890  0.000000
  0.000000  0.000000  0.000000

  0.005450  -0.001543  0.000000
  -0.001543  -0.005268  0.000000
  0.000000  0.000000  0.000000

  -0.009692  -0.000380  0.000000
  -0.000380  0.008074  0.000000
  0.000000  0.000000  0.000000

  -0.001734  -0.006851  0.000000
  -0.006851  0.001221  0.000000
  0.000000  0.000000  0.000000

  0.004855  -0.003370  0.000000
  -0.003370  -0.005650  0.000000
  0.000000  0.000000  0.000000

  -0.012016  0.003953  0.000000
  0.003953  0.008610  0.000000
  0.000000  0.000000  0.000000

  -0.003959  -0.006212  0.000000
  -0.006212  0.003373  0.000000
  0.000000  0.000000  0.000000

  0.003797  -0.004910  0.000000
  -0.004910  -0.004465  0.000000
  0.000000  0.000000  0.000000

  -0.007865  -0.003032  0.000000
  -0.003032  0.006924  0.000000
  0.000000  0.000000  0.000000

  0.000333  -0.006756  0.000000
  -0.006756  -0.000907  0.000000
  0.000000  0.000000  0.000000

  0.005214  -0.001652  0.000000
  -0.001652  -0.006285  0.000000
  0.000000  0.000000  0.000000

  -0.014314  0.007145  0.000000
  0.007145  0.008050  0.000000
  0.000000  0.000000  0.000000

  -0.005022  -0.005618  0.000000
  -0.005618  0.004309  0.000000
  0.000000  0.000000  0.000000

  0.003033  -0.005633  0.000000
  -0.005633  -0.003698  0.000000
  0.000000  0.000000  0.000000

  -0.008743  -0.001838  0.000000
  -0.001838  0.007563  0.000000
  0.000000  0.000000  0.000000

  -0.000723  -0.006855  0.000000
  -0.006855  0.000166  0.000000
  0.000000  0.000000  0.000000

  0.005113  -0.002437  0.000000
  -0.002437  -0.005957  0.000000
  0.000000  0.000000  0.000000

  -0.010793  0.001471  0.000000
  0.001471  0.008469  0.000000
  0.000000  0.000000  0.000000

  -0.002863  -0.006612  0.000000
  -0.006612  0.002296  0.000000
  0.000000  0.000000  0.000000

  0.004402  -0.004113  0.000000
  -0.004113  -0.005081  0.000000
  0.000000  0.000000  0.000000

  -0.006940  -0.004020  0.000000
  -0.004020  0.006043  0.000000
  0.000000  0.000000  0.000000

  0.001253  -0.006502  0.000000
  -0.006502  -0.001873  0.000000
  0.000000  0.000000  0.000000

  0.005064  -0.000798  0.000000
  -0.000798  -0.006332  0.000000
  0.000000  0.000000  0.000000

  0.006153  -0.001267  0.000000
  -0.001267  -0.003400  0.000000
  0.000000  0.000000  0.000000

  0.006710  0.000333  0.000000
  0.000333  -0.002694  0.000000
  0.000000  0.000000  0.000000

  -0.181326  -0.057780  0.000000
  -0.057780  0.025308  0.000000
  0.000000  0.000000  0.000000

  0.006589  0.000860  0.000000
  0.000860  -0.002313  0.000000
  0.000000  0.000000  0.000000

  0.006554  0.001290  0.000000
  0.001290  -0.002337  0.000000
  0.000000  0.000000  0.000000

  0.006346  0.001590  0.000000
  0.001590  -0.002074  0.000000
  0.000000  0.000000  0.000000

  0.006196  0.001941  0.000000
  0.001941  -0.002042  0.000000
  0.000000  0.000000  0.000000

  0.006036  0.002191  0.000000
  0.002191  -0.001769  0.000000
  0.000000  0.000000  0.000000

  0.005923  0.002527  0.000000
  0.002527  -0.001736  0.000000
  0.000000  0.000000  0.000000

  0.005850  0.002845  0.000000
  0.002845  -0.001481  0.000000
  0.000000  0.000000  0.000000

  0.005665  0.003245  0.000000
  0.003245  -0.001372  0.000000
  0.000000  0.000000  0.000000

  0.005523  0.003508  0.000000
  0.003508  -0.000982  0.000000
  0.000000  0.000000  0.000000

  0.005318  0.003884  0.000000
  0.003884  -0.000862  0.000000
  0.000000  0.000000  0.000000

  0.005229  0.004165  0.000000
  0.004165  -0.000437  0.000000
  0.000000  0.000000  0.000000

  0.005072  0.004576  0.000000
  0.004576  -0.000288  0.000000
  0.000000  0.000000  0.000000

  0.004879  0.005147  0.000000
  0.005147  0.000212  0.000000
  0.000000  0.000000  0.000000

  0.004273  0.007078  0.000000
  0.007078  0.002276  0.000000
  0.000000  0.000000  0.000000

  0.004872  0.010306  0.000000
  0.010306  0.006000  0.000000
  0.000000  0.000000  0.000000

  0.033294  0.045335  0.000000
  0.045335  0.023560  0.000000
  0.000000  0.000000  0.000000

  0.004513  0.005995  0.000000
  0.005995  0.000959  0.000000
  0.000000  0.000000  0.000000

  0.004178  0.008407  0.000000
  0.008407  0.003853  0.000000
  0.000000  0.000000  0.000000

  0.009519  0.017264  0.000000
  0.017264  0.010365  0.000000
  0.000000  0.000000  0.000000

  0.004785  0.005349  0.000000
  0.005349  0.000625  0.000000
  0.000000  0.000000  0.000000

  0.004013  0.007932  0.000000
  0.007932  0.003016  0.000000
  0.000000  0.000000  0.000000

  0.004736  0.014347  0.000000
  0.014347  0.008766  0.000000
  0.000000  0.000000  0.000000

  0.123955  0.098782  0.000000
  0.098782  0.021427  0.000000
  0.000000  0.000000  0.000000

  0.004375  0.006250  0.000000
  0.006250  0.001703  0.000000
  0.000000  0.000000  0.000000

  0.003600  0.010037  0.000000
  0.010037  0.004948  0.000000
  0.000000  0.000000  0.000000

  0.012953  0.028904  0.000000
  0.028904  0.016014  0.000000
  0.000000  0.000000  0.000000

  -0.068138  0.026714  0.000000
  0.026714  0.034054  0.000000
  0.000000  0.000000  0.000000

  -0.104600  0.010707  0.000000
  0.010707  0.035900  0.000000
  0.000000  0.000000  0.000000

  -0.014127  0.005085  0.000000
  0.005085  0.008203  0.000000
  0.000000  0.000000  0.000000

  -0.015930  0.003755  0.000000
  0.003755  0.010016  0.000000
  0.000000  0.000000  0.000000

  -0.005786  -0.005635  0.000000
  -0.005635  0.004598  0.000000
  0.000000  0.000000  0.000000

  -0.005558  -0.005890  0.000000
  -0.005890  0.004856  0.000000
  0.000000  0.000000  0.000000

  0.004579  -0.004185  0.000000
  -0.004185  -0.005052  0.000000
  0.000000  0.000000  0.000000

  0.004701  -0.004310  0.000000
  -0.004310  -0.005314  0.000000
  0.000000  0.000000  0.000000

  -0.010199  -0.000879  0.000000
  -0.000879  0.007779  0.000000
  0.000000  0.000000  0.000000

  -0.010275  -0.001403  0.000000
  -0.001403  0.008338  0.000000
  0.000000  0.000000  0.000000

  0.001212  -0.006569  0.000000
  -0.006569  -0.001788  0.000000
  0.000000  0.000000  0.000000

  0.001307  -0.006757  0.000000
  -0.006757  -0.001853  0.000000
  0.000000  0.000000  0.000000

  -0.001724  -0.006884  0.000000
  -0.006884  0.000974  0.000000
  0.000000  0.000000  0.000000

  -0.001681  -0.007079  0.000000
  -0.007079  0.001097  0.000000
  0.000000  0.000000  0.000000

  -0.004818  -0.006029  0.000000
  -0.006029  0.003791  0.000000
  0.000000  0.000000  0.000000

  -0.004755  -0.006195  0.000000
  -0.006195  0.004044  0.000000
  0.000000  0.000000  0.000000

  0.003040  -0.005710  0.000000
  -0.005710  -0.003507  0.000000
  0.000000  0.000000  0.000000

  0.003064  -0.005866  0.000000
  -0.005866  -0.003703  0.000000
  0.000000  0.000000  0.000000

  -0.007842  -0.003889  0.000000
  -0.003889  0.006296  0.000000
  0.000000  0.000000  0.000000

  -0.007687  -0.004131  0.000000
  -0.004131  0.006641  0.000000
  0.000000  0.000000  0.000000

  0.005769  -0.001528  0.000000
  -0.001528  -0.006222  0.000000
  0.000000  0.000000  0.000000

  0.005831  -0.001536  0.000000
  -0.001536  -0.006571  0.000000
  0.000000  0.000000  0.000000

  0.004954  -0.003849  0.000000
  -0.003849  -0.005361  0.000000
  0.000000  0.000000  0.000000

  0.004944  -0.003994  0.000000
  -0.003994  -0.005694  0.000000
  0.000000  0.000000  0.000000

  -0.017323  0.008883  0.000000
  0.008883  0.007951  0.000000
  0.000000  0.000000  0.000000

  -0.019345  0.006022  0.000000
  0.006022  0.010598  0.000000
  0.000000  0.000000  0.000000

  -0.011429  0.000932  0.000000
  0.000932  0.008176  0.000000
  0.000000  0.000000  0.000000

  -0.011795  0.000213  0.000000
  0.000213  0.009014  0.000000
  0.000000  0.000000  0.000000

  0.000180  -0.006886  0.000000
  -0.006886  -0.000752  0.000000
  0.000000  0.000000  0.000000

  0.000133  -0.007093  0.000000
  -0.007093  -0.000796  0.000000
  0.000000  0.000000  0.000000

  0.005311  -0.002962  0.000000
  -0.002962  -0.005786  0.000000
  0.000000  0.000000  0.000000

  0.005408  -0.003005  0.000000
  -0.003005  -0.006076  0.000000
  0.000000  0.000000  0.000000

  -0.003785  -0.006559  0.000000
  -0.006559  0.002833  0.000000
  0.000000  0.000000  0.000000

  -0.003609  -0.006760  0.000000
  -0.006760  0.003047  0.000000
  0.000000  0.000000  0.000000

  0.001934  -0.006293  0.000000
  -0.006293  -0.002483  0.000000
  0.000000  0.000000  0.000000

  0.001979  -0.006490  0.000000
  -0.006490  -0.002576  0.000000
  0.000000  0.000000  0.000000

  0.004065  -0.004984  0.000000
  -0.004984  -0.004473  0.000000
  0.000000  0.000000  0.000000

  0.004042  -0.005132  0.000000
  -0.005132  -0.004737  0.000000
  0.000000  0.000000  0.000000

  0.005555  -0.002321  0.000000
  -0.002321  -0.006026  0.000000
  0.000000  0.000000  0.000000

  0.005574  -0.002368  0.000000
  -0.002368  -0.006294  0.000000
  0.000000  0.000000  0.000000

  -0.012134  0.002069  0.000000
  0.002069  0.008280  0.000000
  0.000000  0.000000  0.000000

  -0.012764  0.001208  0.000000
  0.001208  0.009311  0.000000
  0.000000  0.000000  0.000000

  -0.006267  -0.005253  0.000000
  -0.005253  0.005011  0.000000
  0.000000  0.000000  0.000000

  -0.006125  -0.005459  0.000000
  -0.005459  0.005309  0.000000
  0.000000  0.000000  0.000000

  0.006733  -0.000718  0.000000
  -0.000718  -0.006529  0.000000
  0.000000  0.000000  0.000000

  0.006364  -0.001618  0.000000
  -0.001618  -0.005494  0.000000
  0.000000  0.000000  0.000000

  -0.008865  -0.002883  0.000000
  -0.002883  0.007002  0.000000
  0.000000  0.000000  0.000000

  -0.008836  -0.003014  0.000000
  -0.003014  0.007477  0.000000
  0.000000  0.000000  0.000000

  -0.000626  -0.006973  0.000000
  -0.006973  -0.000105  0.000000
  0.000000  0.000000  0.000000

  -0.000460  -0.007163  0.000000
  -0.007163  -0.000009  0.000000
  0.000000  0.000000  0.000000

  0.001735  -0.006438  0.000000
  -0.006438  -0.002356  0.000000
  0.000000  0.000000  0.000000

  0.001992  -0.006622  0.000000
  -0.006622  -0.002401  0.000000
  0.000000  0.000000  0.000000

  0.003815  -0.005075  0.000000
  -0.005075  -0.004334  0.000000
  0.000000  0.000000  0.000000

  0.004050  -0.005198  0.000000
  -0.005198  -0.004540  0.000000
  0.000000  0.000000  0.000000

  -0.010001  -0.001556  0.000000
  -0.001556  0.007643  0.000000
  0.000000  0.000000  0.000000

  -0.009989  -0.001655  0.000000
  -0.001655  0.008230  0.000000
  0.000000  0.000000  0.000000

  0.001475  -0.006583  0.000000
  -0.006583  -0.001976  0.000000
  0.000000  0.000000  0.000000

  0.001363  -0.006785  0.000000
  -0.006785  -0.002082  0.000000
  0.000000  0.000000  0.000000

  0.005222  -0.003175  0.000000
  -0.003175  -0.005721  0.000000
  0.000000  0.000000  0.000000

  0.005540  -0.003107  0.000000
  -0.003107  -0.006038  0.000000
  0.000000  0.000000  0.000000

  -0.044481  0.028513  0.000000
  0.028513  0.013004  0.000000
  0.000000  0.000000  0.000000

  -0.072759  0.010104  0.000000
  0.010104  0.026806  0.000000
  0.000000  0.000000  0.000000

  -0.014600  0.003932  0.000000
  0.003932  0.008846  0.000000
  0.000000  0.000000  0.000000

  -0.014748  0.003514  0.000000
  0.003514  0.010023  0.000000
  0.000000  0.000000  0.000000

  -0.009225  -0.002383  0.000000
  -0.002383  0.007259  0.000000
  0.000000  0.000000  0.000000

  -0.009050  -0.002791  0.000000
  -0.002791  0.007602  0.000000
  0.000000  0.000000  0.000000

  -0.000917  -0.006949  0.000000
  -0.006949  0.000303  0.000000
  0.000000  0.000000  0.000000

  -0.001024  -0.007149  0.000000
  -0.007149  0.000320  0.000000
  0.000000  0.000000  0.000000

  0.005966  -0.001149  0.000000
  -0.001149  -0.006378  0.000000
  0.000000  0.000000  0.000000

  0.005902  -0.001476  0.000000
  -0.001476  -0.006588  0.000000
  0.000000  0.000000  0.000000

  -0.006644  -0.005011  0.000000
  -0.005011  0.005367  0.000000
  0.000000  0.000000  0.000000

  -0.006405  -0.005336  0.000000
  -0.005336  0.005482  0.000000
  0.000000  0.000000  0.000000

  -0.004549  -0.006143  0.000000
  -0.006143  0.003628  0.000000
  0.000000  0.000000  0.000000

  -0.004786  -0.006269  0.000000
  -0.006269  0.003875  0.000000
  0.000000  0.000000  0.000000

  0.003351  -0.005664  0.000000
  -0.005664  -0.003776  0.000000
  0.000000  0.000000  0.000000

  0.003223  -0.005818  0.000000
  -0.005818  -0.003924  0.000000
  0.000000  0.000000  0.000000

  0.004878  -0.004050  0.000000
  -0.004050  -0.005274  0.000000
  0.000000  0.000000  0.000000

  0.004790  -0.004200  0.000000
  -0.004200  -0.005520  0.000000
  0.000000  0.000000  0.000000
