# vtk DataFile Version 2.0
geometrically linear steady-state plane stress analysis
ASCII

DATASET UNSTRUCTURED_GRID
POINTS 147 double
  0.000000  0.300000  0.000000
  0.000000  0.250000  0.000000
  0.053234  0.342785  0.000000
  0.053364  0.248418  0.000000
  0.000000  0.200000  0.000000
  0.112592  0.324092  0.000000
  0.104364  0.244092  0.000000
  0.050866  0.197669  0.000000
  0.102108  0.194823  0.000000
  0.000000  0.150000  0.000000
  0.163574  0.315336  0.000000
  0.156007  0.239833  0.000000
  0.049649  0.147611  0.000000
  0.100020  0.144885  0.000000
  0.153079  0.190777  0.000000
  0.215606  0.305825  0.000000
  0.000000  0.100000  0.000000
  0.207695  0.234936  0.000000
  0.048782  0.097461  0.000000
  0.150176  0.140981  0.000000
  0.203930  0.185806  0.000000
  0.098188  0.095276  0.000000
  0.147291  0.090743  0.000000
  0.267431  0.295867  0.000000
  0.000000  0.050000  0.000000
  0.200173  0.135973  0.000000
  0.259308  0.229326  0.000000
  0.046159  0.054457  0.000000
  0.254700  0.180047  0.000000
  0.096114  0.043772  0.000000
  0.196370  0.085801  0.000000
  0.250141  0.130222  0.000000
  0.144298  0.040481  0.000000
  0.000000  0.000000  0.000000
  0.319065  0.285683  0.000000
  0.037967  -0.043740  0.000000
  0.310801  0.223009  0.000000
  0.091490  -0.035067  0.000000
  0.305411  0.173600  0.000000
  0.192694  0.035730  0.000000
  0.245549  0.080105  0.000000
  0.137817  -0.036046  0.000000
  0.300121  0.123784  0.000000
  0.370526  0.275411  0.000000
  0.362154  0.216039  0.000000
  0.241118  0.030112  0.000000
  0.185366  -0.037025  0.000000
  0.294813  0.073711  0.000000
  0.356063  0.166534  0.000000
  0.350113  0.116720  0.000000
  0.233170  -0.038724  0.000000
  0.289621  0.023710  0.000000
  0.421827  0.265153  0.000000
  0.344157  0.066678  0.000000
  0.413355  0.208491  0.000000
  0.406651  0.158920  0.000000
  0.281251  -0.041306  0.000000
  0.400114  0.109104  0.000000
  0.338240  0.016635  0.000000
  0.393576  0.059082  0.000000
  0.472969  0.254973  0.000000
  0.464397  0.200455  0.000000
  0.329599  -0.044880  0.000000
  0.457170  0.150836  0.000000
  0.387002  0.008997  0.000000
  0.450120  0.101016  0.000000
  0.443073  0.051010  0.000000
  0.523952  0.244915  0.000000
  0.378202  -0.049486  0.000000
  0.515281  0.192025  0.000000
  0.507616  0.142371  0.000000
  0.435930  0.000896  0.000000
  0.500130  0.092545  0.000000
  0.492646  0.042551  0.000000
  0.427042  -0.055094  0.000000
  0.574774  0.235001  0.000000
  0.566009  0.183296  0.000000
  0.485029  -0.007571  0.000000
  0.557992  0.133613  0.000000
  0.550144  0.083780  0.000000
  0.476097  -0.061611  0.000000
  0.542296  0.033797  0.000000
  0.625437  0.225239  0.000000
  0.616593  0.174354  0.000000
  0.534301  -0.016314  0.000000
  0.608301  0.124645  0.000000
  0.600162  0.074808  0.000000
  0.525346  -0.068905  0.000000
  0.592022  0.024837  0.000000
  0.675949  0.215631  0.000000
  0.583734  -0.025253  0.000000
  0.667045  0.165280  0.000000
  0.658549  0.115549  0.000000
  0.650185  0.065708  0.000000
  0.574767  -0.076818  0.000000
  0.641817  0.015750  0.000000
  0.633314  -0.034314  0.000000
  0.726321  0.206171  0.000000
  0.717384  0.156143  0.000000
  0.708746  0.106393  0.000000
  0.700215  0.056549  0.000000
  0.624341  -0.085193  0.000000
  0.691676  0.006603  0.000000
  0.683020  -0.043433  0.000000
  0.776569  0.196857  0.000000
  0.767627  0.147005  0.000000
  0.758900  0.097238  0.000000
  0.674047  -0.093883  0.000000
  0.750250  0.047390  0.000000
  0.741588  -0.002546  0.000000
  0.732831  -0.052557  0.000000
  0.826714  0.187686  0.000000
  0.817798  0.137915  0.000000
  0.809022  0.088131  0.000000
  0.723862  -0.102760  0.000000
  0.800291  0.038275  0.000000
  0.791543  -0.011655  0.000000
  0.782721  -0.061649  0.000000
  0.876784  0.178672  0.000000
  0.867917  0.128923  0.000000
  0.773762  -0.111724  0.000000
  0.859117  0.079109  0.000000
  0.850332  0.029235  0.000000
  0.841526  -0.020701  0.000000
  0.832666  -0.070685  0.000000
  0.926830  0.169859  0.000000
  0.823722  -0.120703  0.000000
  0.917995  0.120059  0.000000
  0.909184  0.070188  0.000000
  0.900365  0.020277  0.000000
  0.891524  -0.029676  0.000000
  0.882644  -0.079660  0.000000
  0.873716  -0.129659  0.000000
  0.928530  0.169595  0.000000
  0.968051  0.111271  0.000000
  0.959225  0.061337  0.000000
  0.950386  0.011382  0.000000
  0.941525  -0.038593  0.000000
  0.932637  -0.088585  0.000000
  0.923721  -0.138581  0.000000
  0.939841  0.167634  0.000000
  1.018090  0.102533  0.000000
  1.009249  0.052522  0.000000
  1.000398  0.002524  0.000000
  0.991527  -0.047477  0.000000
  0.982634  -0.097483  0.000000
  0.973723  -0.147485  0.000000

CELLS  240  960
  3  35  27  33
  3  27  24  33
  3  37  29  35
  3  29  27  35
  3  41  32  37
  3  32  29  37
  3  46  39  41
  3  39  32  41
  3  50  45  46
  3  45  39  46
  3  56  51  50
  3  51  45  50
  3  62  58  56
  3  58  51  56
  3  68  64  62
  3  64  58  62
  3  74  71  68
  3  71  64  68
  3  80  77  74
  3  77  71  74
  3  87  84  80
  3  84  77  80
  3  94  90  87
  3  90  84  87
  3  101  96  94
  3  96  90  94
  3  107  103  101
  3  103  96  101
  3  114  110  107
  3  110  103  107
  3  120  117  114
  3  117  110  114
  3  126  124  120
  3  124  117  120
  3  132  131  126
  3  131  124  126
  3  139  138  132
  3  138  131  132
  3  146  145  139
  3  145  138  139
  3  27  18  24
  3  18  16  24
  3  29  21  27
  3  21  18  27
  3  32  22  29
  3  22  21  29
  3  39  30  32
  3  30  22  32
  3  45  40  39
  3  40  30  39
  3  51  47  45
  3  47  40  45
  3  58  53  51
  3  53  47  51
  3  64  59  58
  3  59  53  58
  3  71  66  64
  3  66  59  64
  3  77  73  71
  3  73  66  71
  3  84  81  77
  3  81  73  77
  3  90  88  84
  3  88  81  84
  3  96  95  90
  3  95  88  90
  3  103  102  96
  3  102  95  96
  3  110  109  103
  3  109  102  103
  3  117  116  110
  3  116  109  110
  3  124  123  117
  3  123  116  117
  3  131  130  124
  3  130  123  124
  3  138  137  131
  3  137  130  131
  3  145  144  138
  3  144  137  138
  3  18  12  16
  3  12  9  16
  3  21  13  18
  3  13  12  18
  3  22  19  21
  3  19  13  21
  3  30  25  22
  3  25  19  22
  3  40  31  30
  3  31  25  30
  3  47  42  40
  3  42  31  40
  3  53  49  47
  3  49  42  47
  3  59  57  53
  3  57  49  53
  3  66  65  59
  3  65  57  59
  3  73  72  66
  3  72  65  66
  3  81  79  73
  3  79  72  73
  3  88  86  81
  3  86  79  81
  3  95  93  88
  3  93  86  88
  3  102  100  95
  3  100  93  95
  3  109  108  102
  3  108  100  102
  3  116  115  109
  3  115  108  109
  3  123  122  116
  3  122  115  116
  3  130  129  123
  3  129  122  123
  3  137  136  130
  3  136  129  130
  3  144  143  137
  3  143  136  137
  3  12  7  9
  3  7  4  9
  3  13  8  12
  3  8  7  12
  3  19  14  13
  3  14  8  13
  3  25  20  19
  3  20  14  19
  3  31  28  25
  3  28  20  25
  3  42  38  31
  3  38  28  31
  3  49  48  42
  3  48  38  42
  3  57  55  49
  3  55  48  49
  3  65  63  57
  3  63  55  57
  3  72  70  65
  3  70  63  65
  3  79  78  72
  3  78  70  72
  3  86  85  79
  3  85  78  79
  3  93  92  86
  3  92  85  86
  3  100  99  93
  3  99  92  93
  3  108  106  100
  3  106  99  100
  3  115  113  108
  3  113  106  108
  3  122  121  115
  3  121  113  115
  3  129  128  122
  3  128  121  122
  3  136  135  129
  3  135  128  129
  3  143  142  136
  3  142  135  136
  3  7  3  4
  3  3  1  4
  3  8  6  7
  3  6  3  7
  3  14  11  8
  3  11  6  8
  3  20  17  14
  3  17  11  14
  3  28  26  20
  3  26  17  20
  3  38  36  28
  3  36  26  28
  3  48  44  38
  3  44  36  38
  3  55  54  48
  3  54  44  48
  3  63  61  55
  3  61  54  55
  3  70  69  63
  3  69  61  63
  3  78  76  70
  3  76  69  70
  3  85  83  78
  3  83  76  78
  3  92  91  85
  3  91  83  85
  3  99  98  92
  3  98  91  92
  3  106  105  99
  3  105  98  99
  3  113  112  106
  3  112  105  106
  3  121  119  113
  3  119  112  113
  3  128  127  121
  3  127  119  121
  3  135  134  128
  3  134  127  128
  3  142  141  135
  3  141  134  135
  3  3  2  1
  3  2  0  1
  3  6  5  3
  3  5  2  3
  3  11  10  6
  3  10  5  6
  3  17  15  11
  3  15  10  11
  3  26  23  17
  3  23  15  17
  3  36  34  26
  3  34  23  26
  3  44  43  36
  3  43  34  36
  3  54  52  44
  3  52  43  44
  3  61  60  54
  3  60  52  54
  3  69  67  61
  3  67  60  61
  3  76  75  69
  3  75  67  69
  3  83  82  76
  3  82  75  76
  3  91  89  83
  3  89  82  83
  3  98  97  91
  3  97  89  91
  3  105  104  98
  3  104  97  98
  3  112  111  105
  3  111  104  105
  3  119  118  112
  3  118  111  112
  3  127  125  119
  3  125  118  119
  3  134  133  127
  3  133  125  127
  3  141  140  134
  3  140  133  134

CELL_TYPES 240
5
5
5
5
5
5
5
5
5
5
5
5
5
5
5
5
5
5
5
5
5
5
5
5
5
5
5
5
5
5
5
5
5
5
5
5
5
5
5
5
5
5
5
5
5
5
5
5
5
5
5
5
5
5
5
5
5
5
5
5
5
5
5
5
5
5
5
5
5
5
5
5
5
5
5
5
5
5
5
5
5
5
5
5
5
5
5
5
5
5
5
5
5
5
5
5
5
5
5
5
5
5
5
5
5
5
5
5
5
5
5
5
5
5
5
5
5
5
5
5
5
5
5
5
5
5
5
5
5
5
5
5
5
5
5
5
5
5
5
5
5
5
5
5
5
5
5
5
5
5
5
5
5
5
5
5
5
5
5
5
5
5
5
5
5
5
5
5
5
5
5
5
5
5
5
5
5
5
5
5
5
5
5
5
5
5
5
5
5
5
5
5
5
5
5
5
5
5
5
5
5
5
5
5
5
5
5
5
5
5
5
5
5
5
5
5
5
5
5
5
5
5
5
5
5
5
5
5
5
5
5
5
5
5
5
5
5
5
5
5

CELL_DATA 240
TENSORS strain double
  -0.092059  -0.007569  0.000000
  -0.007569  0.021235  0.000000
  0.000000  0.000000  0.000000

  -0.029364  -0.021348  0.000000
  -0.021348  0.000000  0.000000
  0.000000  0.000000  0.000000

  -0.056655  -0.002293  0.000000
  -0.002293  0.016652  0.000000
  0.000000  0.000000  0.000000

  -0.045517  -0.009502  0.000000
  -0.009502  0.021314  0.000000
  0.000000  0.000000  0.000000

  -0.059751  -0.004372  0.000000
  -0.004372  0.015569  0.000000
  0.000000  0.000000  0.000000

  -0.038350  -0.012094  0.000000
  -0.012094  0.016684  0.000000
  0.000000  0.000000  0.000000

  -0.056268  -0.004790  0.000000
  -0.004790  0.014356  0.000000
  0.000000  0.000000  0.000000

  -0.034853  -0.013137  0.000000
  -0.013137  0.015826  0.000000
  0.000000  0.000000  0.000000

  -0.052564  -0.005013  0.000000
  -0.005013  0.013123  0.000000
  0.000000  0.000000  0.000000

  -0.031646  -0.013539  0.000000
  -0.013539  0.014647  0.000000
  0.000000  0.000000  0.000000

  -0.048224  -0.004929  0.000000
  -0.004929  0.011867  0.000000
  0.000000  0.000000  0.000000

  -0.028686  -0.013293  0.000000
  -0.013293  0.013401  0.000000
  0.000000  0.000000  0.000000

  -0.043292  -0.004606  0.000000
  -0.004606  0.010571  0.000000
  0.000000  0.000000  0.000000

  -0.025779  -0.012517  0.000000
  -0.012517  0.012106  0.000000
  0.000000  0.000000  0.000000

  -0.037891  -0.004147  0.000000
  -0.004147  0.009226  0.000000
  0.000000  0.000000  0.000000

  -0.022818  -0.011351  0.000000
  -0.011351  0.010757  0.000000
  0.000000  0.000000  0.000000

  -0.032220  -0.003650  0.000000
  -0.003650  0.007845  0.000000
  0.000000  0.000000  0.000000

  -0.019771  -0.009951  0.000000
  -0.009951  0.009358  0.000000
  0.000000  0.000000  0.000000

  -0.026525  -0.003185  0.000000
  -0.003185  0.006460  0.000000
  0.000000  0.000000  0.000000

  -0.016673  -0.008466  0.000000
  -0.008466  0.007929  0.000000
  0.000000  0.000000  0.000000

  -0.021051  -0.002784  0.000000
  -0.002784  0.005117  0.000000
  0.000000  0.000000  0.000000

  -0.013607  -0.007014  0.000000
  -0.007014  0.006508  0.000000
  0.000000  0.000000  0.000000

  -0.016007  -0.002446  0.000000
  -0.002446  0.003865  0.000000
  0.000000  0.000000  0.000000

  -0.010676  -0.005668  0.000000
  -0.005668  0.005141  0.000000
  0.000000  0.000000  0.000000

  -0.011546  -0.002145  0.000000
  -0.002145  0.002745  0.000000
  0.000000  0.000000  0.000000

  -0.007986  -0.004460  0.000000
  -0.004460  0.003875  0.000000
  0.000000  0.000000  0.000000

  -0.007771  -0.001848  0.000000
  -0.001848  0.001790  0.000000
  0.000000  0.000000  0.000000

  -0.005627  -0.003391  0.000000
  -0.003391  0.002748  0.000000
  0.000000  0.000000  0.000000

  -0.004742  -0.001528  0.000000
  -0.001528  0.001025  0.000000
  0.000000  0.000000  0.000000

  -0.003667  -0.002447  0.000000
  -0.002447  0.001791  0.000000
  0.000000  0.000000  0.000000

  -0.002485  -0.001171  0.000000
  -0.001171  0.000464  0.000000
  0.000000  0.000000  0.000000

  -0.002147  -0.001621  0.000000
  -0.001621  0.001025  0.000000
  0.000000  0.000000  0.000000

  -0.000981  -0.000787  0.000000
  -0.000787  0.000110  0.000000
  0.000000  0.000000  0.000000

  -0.001080  -0.000915  0.000000
  -0.000915  0.000464  0.000000
  0.000000  0.000000  0.000000

  -0.000166  -0.000410  0.000000
  -0.000410  -0.000053  0.000000
  0.000000  0.000000  0.000000

  -0.000437  -0.000356  0.000000
  -0.000356  0.000110  0.000000
  0.000000  0.000000  0.000000

  0.000105  -0.000103  0.000000
  -0.000103  -0.000065  0.000000
  0.000000  0.000000  0.000000

  -0.000130  0.000009  0.000000
  0.000009  -0.000053  0.000000
  0.000000  0.000000  0.000000

  0.000034  0.000067  0.000000
  0.000067  0.000034  0.000000
  0.000000  0.000000  0.000000

  -0.000056  0.000161  0.000000
  0.000161  -0.000065  0.000000
  0.000000  0.000000  0.000000

  -0.031264  -0.014595  0.000000
  -0.014595  0.003114  0.000000
  0.000000  0.000000  0.000000

  -0.017389  -0.020010  0.000000
  -0.020010  0.000000  0.000000
  0.000000  0.000000  0.000000

  -0.046254  -0.012968  0.000000
  -0.012968  0.011656  0.000000
  0.000000  0.000000  0.000000

  -0.019293  -0.025882  0.000000
  -0.025882  0.004183  0.000000
  0.000000  0.000000  0.000000

  -0.038427  -0.009663  0.000000
  -0.009663  0.009701  0.000000
  0.000000  0.000000  0.000000

  -0.020944  -0.019249  0.000000
  -0.019249  0.011593  0.000000
  0.000000  0.000000  0.000000

  -0.034876  -0.009072  0.000000
  -0.009072  0.008306  0.000000
  0.000000  0.000000  0.000000

  -0.018269  -0.018062  0.000000
  -0.018062  0.009654  0.000000
  0.000000  0.000000  0.000000

  -0.031648  -0.008754  0.000000
  -0.008754  0.007044  0.000000
  0.000000  0.000000  0.000000

  -0.016215  -0.017069  0.000000
  -0.017069  0.008215  0.000000
  0.000000  0.000000  0.000000

  -0.028671  -0.008565  0.000000
  -0.008565  0.005976  0.000000
  0.000000  0.000000  0.000000

  -0.014398  -0.016204  0.000000
  -0.016204  0.006955  0.000000
  0.000000  0.000000  0.000000

  -0.025760  -0.008389  0.000000
  -0.008389  0.005073  0.000000
  0.000000  0.000000  0.000000

  -0.012730  -0.015330  0.000000
  -0.015330  0.005906  0.000000
  0.000000  0.000000  0.000000

  -0.022803  -0.008154  0.000000
  -0.008154  0.004287  0.000000
  0.000000  0.000000  0.000000

  -0.011138  -0.014363  0.000000
  -0.014363  0.005027  0.000000
  0.000000  0.000000  0.000000

  -0.019763  -0.007823  0.000000
  -0.007823  0.003571  0.000000
  0.000000  0.000000  0.000000

  -0.009580  -0.013262  0.000000
  -0.013262  0.004261  0.000000
  0.000000  0.000000  0.000000

  -0.016670  -0.007381  0.000000
  -0.007381  0.002892  0.000000
  0.000000  0.000000  0.000000

  -0.008047  -0.012027  0.000000
  -0.012027  0.003559  0.000000
  0.000000  0.000000  0.000000

  -0.013606  -0.006826  0.000000
  -0.006826  0.002233  0.000000
  0.000000  0.000000  0.000000

  -0.006551  -0.010680  0.000000
  -0.010680  0.002886  0.000000
  0.000000  0.000000  0.000000

  -0.010677  -0.006167  0.000000
  -0.006167  0.001597  0.000000
  0.000000  0.000000  0.000000

  -0.005123  -0.009260  0.000000
  -0.009260  0.002231  0.000000
  0.000000  0.000000  0.000000

  -0.007987  -0.005411  0.000000
  -0.005411  0.000999  0.000000
  0.000000  0.000000  0.000000

  -0.003800  -0.007803  0.000000
  -0.007803  0.001596  0.000000
  0.000000  0.000000  0.000000

  -0.005628  -0.004569  0.000000
  -0.004569  0.000467  0.000000
  0.000000  0.000000  0.000000

  -0.002619  -0.006340  0.000000
  -0.006340  0.000999  0.000000
  0.000000  0.000000  0.000000

  -0.003667  -0.003657  0.000000
  -0.003657  0.000031  0.000000
  0.000000  0.000000  0.000000

  -0.001617  -0.004900  0.000000
  -0.004900  0.000467  0.000000
  0.000000  0.000000  0.000000

  -0.002147  -0.002705  0.000000
  -0.002705  -0.000269  0.000000
  0.000000  0.000000  0.000000

  -0.000829  -0.003514  0.000000
  -0.003514  0.000031  0.000000
  0.000000  0.000000  0.000000

  -0.001080  -0.001774  0.000000
  -0.001774  -0.000402  0.000000
  0.000000  0.000000  0.000000

  -0.000292  -0.002235  0.000000
  -0.002235  -0.000269  0.000000
  0.000000  0.000000  0.000000

  -0.000437  -0.000957  0.000000
  -0.000957  -0.000356  0.000000
  0.000000  0.000000  0.000000

  -0.000020  -0.001142  0.000000
  -0.001142  -0.000402  0.000000
  0.000000  0.000000  0.000000

  -0.000130  -0.000367  0.000000
  -0.000367  -0.000183  0.000000
  0.000000  0.000000  0.000000

  0.000049  -0.000370  0.000000
  -0.000370  -0.000356  0.000000
  0.000000  0.000000  0.000000

  -0.000056  -0.000072  0.000000
  -0.000072  0.000123  0.000000
  0.000000  0.000000  0.000000

  -0.000005  0.000055  0.000000
  0.000055  -0.000183  0.000000
  0.000000  0.000000  0.000000

  -0.017194  -0.011255  0.000000
  -0.011255  0.000507  0.000000
  0.000000  0.000000  0.000000

  0.000287  -0.019754  0.000000
  -0.019754  0.000000  0.000000
  0.000000  0.000000  0.000000

  -0.019813  -0.013834  0.000000
  -0.013834  0.001909  0.000000
  0.000000  0.000000  0.000000

  0.000177  -0.023071  0.000000
  -0.023071  0.000502  0.000000
  0.000000  0.000000  0.000000

  -0.020867  -0.013070  0.000000
  -0.013070  0.002928  0.000000
  0.000000  0.000000  0.000000

  -0.000434  -0.022853  0.000000
  -0.022853  0.001901  0.000000
  0.000000  0.000000  0.000000

  -0.018271  -0.011719  0.000000
  -0.011719  0.002298  0.000000
  0.000000  0.000000  0.000000

  -0.000677  -0.020819  0.000000
  -0.020819  0.002922  0.000000
  0.000000  0.000000  0.000000

  -0.016213  -0.011131  0.000000
  -0.011131  0.001622  0.000000
  0.000000  0.000000  0.000000

  -0.000267  -0.019441  0.000000
  -0.019441  0.002304  0.000000
  0.000000  0.000000  0.000000

  -0.014395  -0.010809  0.000000
  -0.010809  0.001029  0.000000
  0.000000  0.000000  0.000000

  0.000093  -0.018349  0.000000
  -0.018349  0.001626  0.000000
  0.000000  0.000000  0.000000

  -0.012726  -0.010587  0.000000
  -0.010587  0.000545  0.000000
  0.000000  0.000000  0.000000

  0.000355  -0.017369  0.000000
  -0.017369  0.001030  0.000000
  0.000000  0.000000  0.000000

  -0.011133  -0.010346  0.000000
  -0.010346  0.000160  0.000000
  0.000000  0.000000  0.000000

  0.000524  -0.016367  0.000000
  -0.016367  0.000545  0.000000
  0.000000  0.000000  0.000000

  -0.009576  -0.010003  0.000000
  -0.010003  -0.000153  0.000000
  0.000000  0.000000  0.000000

  0.000622  -0.015258  0.000000
  -0.015258  0.000160  0.000000
  0.000000  0.000000  0.000000

  -0.008044  -0.009513  0.000000
  -0.009513  -0.000419  0.000000
  0.000000  0.000000  0.000000

  0.000673  -0.014004  0.000000
  -0.014004  -0.000153  0.000000
  0.000000  0.000000  0.000000

  -0.006549  -0.008858  0.000000
  -0.008858  -0.000661  0.000000
  0.000000  0.000000  0.000000

  0.000702  -0.012604  0.000000
  -0.012604  -0.000419  0.000000
  0.000000  0.000000  0.000000

  -0.005122  -0.008043  0.000000
  -0.008043  -0.000894  0.000000
  0.000000  0.000000  0.000000

  0.000727  -0.011083  0.000000
  -0.011083  -0.000661  0.000000
  0.000000  0.000000  0.000000

  -0.003799  -0.007082  0.000000
  -0.007082  -0.001118  0.000000
  0.000000  0.000000  0.000000

  0.000761  -0.009474  0.000000
  -0.009474  -0.000893  0.000000
  0.000000  0.000000  0.000000

  -0.002619  -0.005998  0.000000
  -0.005998  -0.001323  0.000000
  0.000000  0.000000  0.000000

  0.000811  -0.007815  0.000000
  -0.007815  -0.001118  0.000000
  0.000000  0.000000  0.000000

  -0.001616  -0.004817  0.000000
  -0.004817  -0.001475  0.000000
  0.000000  0.000000  0.000000

  0.000873  -0.006137  0.000000
  -0.006137  -0.001323  0.000000
  0.000000  0.000000  0.000000

  -0.000830  -0.003582  0.000000
  -0.003582  -0.001517  0.000000
  0.000000  0.000000  0.000000

  0.000919  -0.004477  0.000000
  -0.004477  -0.001475  0.000000
  0.000000  0.000000  0.000000

  -0.000292  -0.002370  0.000000
  -0.002370  -0.001375  0.000000
  0.000000  0.000000  0.000000

  0.000890  -0.002890  0.000000
  -0.002890  -0.001517  0.000000
  0.000000  0.000000  0.000000

  -0.000020  -0.001307  0.000000
  -0.001307  -0.000996  0.000000
  0.000000  0.000000  0.000000

  0.000710  -0.001483  0.000000
  -0.001483  -0.001375  0.000000
  0.000000  0.000000  0.000000

  0.000049  -0.000555  0.000000
  -0.000555  -0.000505  0.000000
  0.000000  0.000000  0.000000

  0.000425  -0.000497  0.000000
  -0.000497  -0.000996  0.000000
  0.000000  0.000000  0.000000

  -0.000005  -0.000162  0.000000
  -0.000162  0.000035  0.000000
  0.000000  0.000000  0.000000

  0.000109  0.000050  0.000000
  0.000050  -0.000504  0.000000
  0.000000  0.000000  0.000000

  0.000448  -0.010434  0.000000
  -0.010434  -0.003815  0.000000
  0.000000  0.000000  0.000000

  0.019091  -0.021675  0.000000
  -0.021675  0.000000  0.000000
  0.000000  0.000000  0.000000

  -0.000018  -0.012776  0.000000
  -0.012776  -0.004592  0.000000
  0.000000  0.000000  0.000000

  0.019510  -0.022975  0.000000
  -0.022975  -0.003676  0.000000
  0.000000  0.000000  0.000000

  -0.000538  -0.013018  0.000000
  -0.013018  -0.004306  0.000000
  0.000000  0.000000  0.000000

  0.018544  -0.022439  0.000000
  -0.022439  -0.004523  0.000000
  0.000000  0.000000  0.000000

  -0.000669  -0.012361  0.000000
  -0.012361  -0.004021  0.000000
  0.000000  0.000000  0.000000

  0.017214  -0.021173  0.000000
  -0.021173  -0.004290  0.000000
  0.000000  0.000000  0.000000

  -0.000257  -0.011667  0.000000
  -0.011667  -0.003996  0.000000
  0.000000  0.000000  0.000000

  0.015947  -0.019757  0.000000
  -0.019757  -0.004018  0.000000
  0.000000  0.000000  0.000000

  0.000102  -0.011207  0.000000
  -0.011207  -0.004023  0.000000
  0.000000  0.000000  0.000000

  0.014776  -0.018556  0.000000
  -0.018556  -0.003996  0.000000
  0.000000  0.000000  0.000000

  0.000363  -0.010870  0.000000
  -0.010870  -0.004030  0.000000
  0.000000  0.000000  0.000000

  0.013560  -0.017470  0.000000
  -0.017470  -0.004023  0.000000
  0.000000  0.000000  0.000000

  0.000531  -0.010546  0.000000
  -0.010546  -0.003988  0.000000
  0.000000  0.000000  0.000000

  0.012252  -0.016385  0.000000
  -0.016385  -0.004030  0.000000
  0.000000  0.000000  0.000000

  0.000628  -0.010152  0.000000
  -0.010152  -0.003896  0.000000
  0.000000  0.000000  0.000000

  0.010854  -0.015219  0.000000
  -0.015219  -0.003988  0.000000
  0.000000  0.000000  0.000000

  0.000678  -0.009635  0.000000
  -0.009635  -0.003766  0.000000
  0.000000  0.000000  0.000000

  0.009402  -0.013932  0.000000
  -0.013932  -0.003896  0.000000
  0.000000  0.000000  0.000000

  0.000706  -0.008971  0.000000
  -0.008971  -0.003619  0.000000
  0.000000  0.000000  0.000000

  0.007951  -0.012520  0.000000
  -0.012520  -0.003766  0.000000
  0.000000  0.000000  0.000000

  0.000730  -0.008159  0.000000
  -0.008159  -0.003475  0.000000
  0.000000  0.000000  0.000000

  0.006561  -0.011002  0.000000
  -0.011002  -0.003619  0.000000
  0.000000  0.000000  0.000000

  0.000763  -0.007211  0.000000
  -0.007211  -0.003348  0.000000
  0.000000  0.000000  0.000000

  0.005289  -0.009411  0.000000
  -0.009411  -0.003475  0.000000
  0.000000  0.000000  0.000000

  0.000812  -0.006146  0.000000
  -0.006146  -0.003242  0.000000
  0.000000  0.000000  0.000000

  0.004183  -0.007778  0.000000
  -0.007778  -0.003348  0.000000
  0.000000  0.000000  0.000000

  0.000873  -0.004982  0.000000
  -0.004982  -0.003133  0.000000
  0.000000  0.000000  0.000000

  0.003275  -0.006128  0.000000
  -0.006128  -0.003242  0.000000
  0.000000  0.000000  0.000000

  0.000919  -0.003740  0.000000
  -0.003740  -0.002942  0.000000
  0.000000  0.000000  0.000000

  0.002571  -0.004471  0.000000
  -0.004471  -0.003133  0.000000
  0.000000  0.000000  0.000000

  0.000890  -0.002477  0.000000
  -0.002477  -0.002539  0.000000
  0.000000  0.000000  0.000000

  0.001992  -0.002826  0.000000
  -0.002826  -0.002942  0.000000
  0.000000  0.000000  0.000000

  0.000710  -0.001322  0.000000
  -0.001322  -0.001783  0.000000
  0.000000  0.000000  0.000000

  0.001385  -0.001283  0.000000
  -0.001283  -0.002539  0.000000
  0.000000  0.000000  0.000000

  0.000425  -0.000508  0.000000
  -0.000508  -0.000896  0.000000
  0.000000  0.000000  0.000000

  0.000812  -0.000258  0.000000
  -0.000258  -0.001783  0.000000
  0.000000  0.000000  0.000000

  0.000109  -0.000109  0.000000
  -0.000109  -0.000042  0.000000
  0.000000  0.000000  0.000000

  0.000188  0.000278  0.000000
  0.000278  -0.000896  0.000000
  0.000000  0.000000  0.000000

  0.019167  -0.010451  0.000000
  -0.010451  -0.009405  0.000000
  0.000000  0.000000  0.000000

  0.041597  -0.026383  0.000000
  -0.026383  0.000000  0.000000
  0.000000  0.000000  0.000000

  0.019328  -0.011416  0.000000
  -0.011416  -0.011101  0.000000
  0.000000  0.000000  0.000000

  0.038907  -0.022389  0.000000
  -0.022389  -0.008803  0.000000
  0.000000  0.000000  0.000000

  0.018499  -0.011292  0.000000
  -0.011292  -0.010971  0.000000
  0.000000  0.000000  0.000000

  0.037091  -0.020609  0.000000
  -0.020609  -0.011035  0.000000
  0.000000  0.000000  0.000000

  0.017216  -0.010779  0.000000
  -0.010779  -0.010363  0.000000
  0.000000  0.000000  0.000000

  0.034652  -0.019232  0.000000
  -0.019232  -0.010990  0.000000
  0.000000  0.000000  0.000000

  0.015963  -0.010173  0.000000
  -0.010173  -0.009747  0.000000
  0.000000  0.000000  0.000000

  0.032147  -0.017975  0.000000
  -0.017975  -0.010391  0.000000
  0.000000  0.000000  0.000000

  0.014790  -0.009633  0.000000
  -0.009633  -0.009219  0.000000
  0.000000  0.000000  0.000000

  0.029616  -0.016789  0.000000
  -0.016789  -0.009766  0.000000
  0.000000  0.000000  0.000000

  0.013571  -0.009170  0.000000
  -0.009170  -0.008719  0.000000
  0.000000  0.000000  0.000000

  0.026973  -0.015623  0.000000
  -0.015623  -0.009229  0.000000
  0.000000  0.000000  0.000000

  0.012261  -0.008732  0.000000
  -0.008732  -0.008202  0.000000
  0.000000  0.000000  0.000000

  0.024152  -0.014419  0.000000
  -0.014419  -0.008724  0.000000
  0.000000  0.000000  0.000000

  0.010862  -0.008271  0.000000
  -0.008271  -0.007648  0.000000
  0.000000  0.000000  0.000000

  0.021166  -0.013146  0.000000
  -0.013146  -0.008203  0.000000
  0.000000  0.000000  0.000000

  0.009409  -0.007757  0.000000
  -0.007757  -0.007065  0.000000
  0.000000  0.000000  0.000000

  0.018087  -0.011805  0.000000
  -0.011805  -0.007648  0.000000
  0.000000  0.000000  0.000000

  0.007957  -0.007173  0.000000
  -0.007173  -0.006475  0.000000
  0.000000  0.000000  0.000000

  0.015024  -0.010412  0.000000
  -0.010412  -0.007065  0.000000
  0.000000  0.000000  0.000000

  0.006565  -0.006512  0.000000
  -0.006512  -0.005909  0.000000
  0.000000  0.000000  0.000000

  0.012096  -0.008994  0.000000
  -0.008994  -0.006475  0.000000
  0.000000  0.000000  0.000000

  0.005292  -0.005777  0.000000
  -0.005777  -0.005392  0.000000
  0.000000  0.000000  0.000000

  0.009408  -0.007577  0.000000
  -0.007577  -0.005909  0.000000
  0.000000  0.000000  0.000000

  0.004185  -0.004976  0.000000
  -0.004976  -0.004944  0.000000
  0.000000  0.000000  0.000000

  0.007047  -0.006183  0.000000
  -0.006183  -0.005392  0.000000
  0.000000  0.000000  0.000000

  0.003276  -0.004110  0.000000
  -0.004110  -0.004563  0.000000
  0.000000  0.000000  0.000000

  0.005078  -0.004821  0.000000
  -0.004821  -0.004944  0.000000
  0.000000  0.000000  0.000000

  0.002571  -0.003167  0.000000
  -0.003167  -0.004195  0.000000
  0.000000  0.000000  0.000000

  0.003544  -0.003469  0.000000
  -0.003469  -0.004563  0.000000
  0.000000  0.000000  0.000000

  0.001992  -0.002114  0.000000
  -0.002114  -0.003603  0.000000
  0.000000  0.000000  0.000000

  0.002461  -0.002053  0.000000
  -0.002053  -0.004194  0.000000
  0.000000  0.000000  0.000000

  0.001385  -0.001068  0.000000
  -0.001068  -0.002512  0.000000
  0.000000  0.000000  0.000000

  0.001491  -0.000575  0.000000
  -0.000575  -0.003603  0.000000
  0.000000  0.000000  0.000000

  0.000812  -0.000313  0.000000
  -0.000313  -0.001300  0.000000
  0.000000  0.000000  0.000000

  0.000948  0.000224  0.000000
  0.000224  -0.002512  0.000000
  0.000000  0.000000  0.000000

  0.000188  0.000100  0.000000
  0.000100  0.000184  0.000000
  0.000000  0.000000  0.000000

  0.000331  0.000771  0.000000
  0.000771  -0.001301  0.000000
  0.000000  0.000000  0.000000

  0.040857  -0.009306  0.000000
  -0.009306  -0.017177  0.000000
  0.000000  0.000000  0.000000

  0.109095  -0.043546  0.000000
  -0.043546  0.000000  0.000000
  0.000000  0.000000  0.000000

  0.039483  -0.009124  0.000000
  -0.009124  -0.019770  0.000000
  0.000000  0.000000  0.000000

  0.061175  -0.017778  0.000000
  -0.017778  -0.017772  0.000000
  0.000000  0.000000  0.000000

  0.037156  -0.008781  0.000000
  -0.008781  -0.018845  0.000000
  0.000000  0.000000  0.000000

  0.063234  -0.017515  0.000000
  -0.017515  -0.018994  0.000000
  0.000000  0.000000  0.000000

  0.034636  -0.008287  0.000000
  -0.008287  -0.017694  0.000000
  0.000000  0.000000  0.000000

  0.059238  -0.016626  0.000000
  -0.016626  -0.018371  0.000000
  0.000000  0.000000  0.000000

  0.032114  -0.007547  0.000000
  -0.007547  -0.016453  0.000000
  0.000000  0.000000  0.000000

  0.054636  -0.015491  0.000000
  -0.015491  -0.017329  0.000000
  0.000000  0.000000  0.000000

  0.029588  -0.006678  0.000000
  -0.006678  -0.015229  0.000000
  0.000000  0.000000  0.000000

  0.049622  -0.014070  0.000000
  -0.014070  -0.016194  0.000000
  0.000000  0.000000  0.000000

  0.026957  -0.005802  0.000000
  -0.005802  -0.014015  0.000000
  0.000000  0.000000  0.000000

  0.044264  -0.012434  0.000000