# vtk DataFile Version 2.0
geometrically linear steady-state plane stress analysis
ASCII

DATASET UNSTRUCTURED_GRID
POINTS 147 double
  0.000000  0.300000  0.000000
  0.000000  0.250000  0.000000
  0.056897  0.294969  0.000000
  0.053993  0.246510  0.000000
  0.000000  0.200000  0.000000
  0.113205  0.289351  0.000000
  0.108017  0.241042  0.000000
  0.051882  0.197245  0.000000
  0.103837  0.192009  0.000000
  0.000000  0.150000  0.000000
  0.168815  0.282197  0.000000
  0.161754  0.233806  0.000000
  0.050041  0.147504  0.000000
  0.100075  0.142370  0.000000
  0.155692  0.184787  0.000000
  0.223791  0.273492  0.000000
  0.000000  0.100000  0.000000
  0.215117  0.224962  0.000000
  0.048215  0.097395  0.000000
  0.150082  0.135155  0.000000
  0.207378  0.175881  0.000000
  0.096296  0.092159  0.000000
  0.144437  0.084909  0.000000
  0.278179  0.263366  0.000000
  0.000000  0.050000  0.000000
  0.200083  0.126231  0.000000
  0.268098  0.214688  0.000000
  0.046107  0.046809  0.000000
  0.258884  0.165527  0.000000
  0.091993  0.041267  0.000000
  0.192764  0.076007  0.000000
  0.250092  0.115856  0.000000
  0.138279  0.034038  0.000000
  0.000000  0.000000  0.000000
  0.332020  0.251985  0.000000
  0.042682  -0.004864  0.000000
  0.320717  0.203164  0.000000
  0.086571  -0.010347  0.000000
  0.310214  0.153923  0.000000
  0.184975  0.025225  0.000000
  0.241290  0.065669  0.000000
  0.131134  -0.017423  0.000000
  0.300110  0.104231  0.000000
  0.385353  0.239518  0.000000
  0.372996  0.190564  0.000000
  0.232057  0.014984  0.000000
  0.176283  -0.026078  0.000000
  0.290003  0.054081  0.000000
  0.361380  0.141246  0.000000
  0.350134  0.091533  0.000000
  0.221986  -0.036165  0.000000
  0.279502  0.003489  0.000000
  0.438215  0.226126  0.000000
  0.338891  0.041417  0.000000
  0.424962  0.177049  0.000000
  0.412391  0.127659  0.000000
  0.268218  -0.047515  0.000000
  0.400163  0.077926  0.000000
  0.327283  -0.009090  0.000000
  0.387938  0.027839  0.000000
  0.490643  0.211959  0.000000
  0.476638  0.162769  0.000000
  0.314951  -0.059957  0.000000
  0.463258  0.113312  0.000000
  0.375379  -0.022589  0.000000
  0.450193  0.063559  0.000000
  0.437131  0.013499  0.000000
  0.542674  0.197153  0.000000
  0.362150  -0.073328  0.000000
  0.528051  0.147860  0.000000
  0.513994  0.098343  0.000000
  0.423765  -0.036857  0.000000
  0.500224  0.048572  0.000000
  0.486459  -0.001464  0.000000
  0.409784  -0.087479  0.000000
  0.594345  0.181836  0.000000
  0.579222  0.132450  0.000000
  0.472416  -0.051755  0.000000
  0.564611  0.082878  0.000000
  0.550257  0.033090  0.000000
  0.457815  -0.102269  0.000000
  0.535907  -0.016924  0.000000
  0.645690  0.166121  0.000000
  0.630178  0.116652  0.000000
  0.521309  -0.067155  0.000000
  0.615119  0.067031  0.000000
  0.600290  0.017229  0.000000
  0.506209  -0.117572  0.000000
  0.585466  -0.032766  0.000000
  0.696748  0.150112  0.000000
  0.570420  -0.082943  0.000000
  0.680941  0.100570  0.000000
  0.665532  0.050906  0.000000
  0.650324  0.001090  0.000000
  0.554929  -0.133273  0.000000
  0.635121  -0.048888  0.000000
  0.619725  -0.099017  0.000000
  0.747553  0.133897  0.000000
  0.731536  0.084292  0.000000
  0.715861  0.034591  0.000000
  0.700359  -0.015236  0.000000
  0.603939  -0.149269  0.000000
  0.684862  -0.065198  0.000000
  0.669199  -0.115286  0.000000
  0.798142  0.117556  0.000000
  0.781987  0.067898  0.000000
  0.766118  0.018166  0.000000
  0.653203  -0.165470  0.000000
  0.750395  -0.031670  0.000000
  0.734676  -0.081619  0.000000
  0.718819  -0.131671  0.000000
  0.848552  0.101154  0.000000
  0.832318  0.051453  0.000000
  0.816315  0.001696  0.000000
  0.702685  -0.181798  0.000000
  0.800431  -0.048147  0.000000
  0.784551  -0.098085  0.000000
  0.768560  -0.148107  0.000000
  0.898819  0.084747  0.000000
  0.882553  0.035013  0.000000
  0.752348  -0.198185  0.000000
  0.866463  -0.014765  0.000000
  0.850468  -0.064614  0.000000
  0.834477  -0.114541  0.000000
  0.818400  -0.164538  0.000000
  0.948982  0.068374  0.000000
  0.802155  -0.214579  0.000000
  0.932714  0.018619  0.000000
  0.916573  -0.031174  0.000000
  0.900506  -0.081028  0.000000
  0.884443  -0.130947  0.000000
  0.868315  -0.180925  0.000000
  0.852068  -0.230936  0.000000
  0.999080  0.052062  0.000000
  0.982825  0.002296  0.000000
  0.966655  -0.047504  0.000000
  0.950544  -0.097358  0.000000
  0.934438  -0.147272  0.000000
  0.918282  -0.197239  0.000000
  0.902047  -0.247234  0.000000
  1.049156  0.035814  0.000000
  1.032906  -0.013945  0.000000
  1.016722  -0.063730  0.000000
  1.000586  -0.113576  0.000000
  0.984452  -0.163496  0.000000
  0.968277  -0.213475  0.000000
  0.952045  -0.263473  0.000000

CELLS  240  960
  3  35  27  33
  3  27  24  33
  3  37  29  35
  3  29  27  35
  3  41  32  37
  3  32  29  37
  3  46  39  41
  3  39  32  41
  3  50  45  46
  3  45  39  46
  3  56  51  50
  3  51  45  50
  3  62  58  56
  3  58  51  56
  3  68  64  62
  3  64  58  62
  3  74  71  68
  3  71  64  68
  3  80  77  74
  3  77  71  74
  3  87  84  80
  3  84  77  80
  3  94  90  87
  3  90  84  87
  3  101  96  94
  3  96  90  94
  3  107  103  101
  3  103  96  101
  3  114  110  107
  3  110  103  107
  3  120  117  114
  3  117  110  114
  3  126  124  120
  3  124  117  120
  3  132  131  126
  3  131  124  126
  3  139  138  132
  3  138  131  132
  3  146  145  139
  3  145  138  139
  3  27  18  24
  3  18  16  24
  3  29  21  27
  3  21  18  27
  3  32  22  29
  3  22  21  29
  3  39  30  32
  3  30  22  32
  3  45  40  39
  3  40  30  39
  3  51  47  45
  3  47  40  45
  3  58  53  51
  3  53  47  51
  3  64  59  58
  3  59  53  58
  3  71  66  64
  3  66  59  64
  3  77  73  71
  3  73  66  71
  3  84  81  77
  3  81  73  77
  3  90  88  84
  3  88  81  84
  3  96  95  90
  3  95  88  90
  3  103  102  96
  3  102  95  96
  3  110  109  103
  3  109  102  103
  3  117  116  110
  3  116  109  110
  3  124  123  117
  3  123  116  117
  3  131  130  124
  3  130  123  124
  3  138  137  131
  3  137  130  131
  3  145  144  138
  3  144  137  138
  3  18  12  16
  3  12  9  16
  3  21  13  18
  3  13  12  18
  3  22  19  21
  3  19  13  21
  3  30  25  22
  3  25  19  22
  3  40  31  30
  3  31  25  30
  3  47  42  40
  3  42  31  40
  3  53  49  47
  3  49  42  47
  3  59  57  53
  3  57  49  53
  3  66  65  59
  3  65  57  59
  3  73  72  66
  3  72  65  66
  3  81  79  73
  3  79  72  73
  3  88  86  81
  3  86  79  81
  3  95  93  88
  3  93  86  88
  3  102  100  95
  3  100  93  95
  3  109  108  102
  3  108  100  102
  3  116  115  109
  3  115  108  109
  3  123  122  116
  3  122  115  116
  3  130  129  123
  3  129  122  123
  3  137  136  130
  3  136  129  130
  3  144  143  137
  3  143  136  137
  3  12  7  9
  3  7  4  9
  3  13  8  12
  3  8  7  12
  3  19  14  13
  3  14  8  13
  3  25  20  19
  3  20  14  19
  3  31  28  25
  3  28  20  25
  3  42  38  31
  3  38  28  31
  3  49  48  42
  3  48  38  42
  3  57  55  49
  3  55  48  49
  3  65  63  57
  3  63  55  57
  3  72  70  65
  3  70  63  65
  3  79  78  72
  3  78  70  72
  3  86  85  79
  3  85  78  79
  3  93  92  86
  3  92  85  86
  3  100  99  93
  3  99  92  93
  3  108  106  100
  3  106  99  100
  3  115  113  108
  3  113  106  108
  3  122  121  115
  3  121  113  115
  3  129  128  122
  3  128  121  122
  3  136  135  129
  3  135  128  129
  3  143  142  136
  3  142  135  136
  3  7  3  4
  3  3  1  4
  3  8  6  7
  3  6  3  7
  3  14  11  8
  3  11  6  8
  3  20  17  14
  3  17  11  14
  3  28  26  20
  3  26  17  20
  3  38  36  28
  3  36  26  28
  3  48  44  38
  3  44  36  38
  3  55  54  48
  3  54  44  48
  3  63  61  55
  3  61  54  55
  3  70  69  63
  3  69  61  63
  3  78  76  70
  3  76  69  70
  3  85  83  78
  3  83  76  78
  3  92  91  85
  3  91  83  85
  3  99  98  92
  3  98  91  92
  3  106  105  99
  3  105  98  99
  3  113  112  106
  3  112  105  106
  3  121  119  113
  3  119  112  113
  3  128  127  121
  3  127  119  121
  3  135  134  128
  3  134  127  128
  3  142  141  135
  3  141  134  135
  3  3  2  1
  3  2  0  1
  3  6  5  3
  3  5  2  3
  3  11  10  6
  3  10  5  6
  3  17  15  11
  3  15  10  11
  3  26  23  17
  3  23  15  17
  3  36  34  26
  3  34  23  26
  3  44  43  36
  3  43  34  36
  3  54  52  44
  3  52  43  44
  3  61  60  54
  3  60  52  54
  3  69  67  61
  3  67  60  61
  3  76  75  69
  3  75  67  69
  3  83  82  76
  3  82  75  76
  3  91  89  83
  3  89  82  83
  3  98  97  91
  3  97  89  91
  3  105  104  98
  3  104  97  98
  3  112  111  105
  3  111  104  105
  3  119  118  112
  3  118  111  112
  3  127  125  119
  3  125  118  119
  3  134  133  127
  3  133  125  127
  3  141  140  134
  3  140  133  134

CELL_TYPES 240
5
5
5
5
5
5
5
5
5
5
5
5
5
5
5
5
5
5
5
5
5
5
5
5
5
5
5
5
5
5
5
5
5
5
5
5
5
5
5
5
5
5
5
5
5
5
5
5
5
5
5
5
5
5
5
5
5
5
5
5
5
5
5
5
5
5
5
5
5
5
5
5
5
5
5
5
5
5
5
5
5
5
5
5
5
5
5
5
5
5
5
5
5
5
5
5
5
5
5
5
5
5
5
5
5
5
5
5
5
5
5
5
5
5
5
5
5
5
5
5
5
5
5
5
5
5
5
5
5
5
5
5
5
5
5
5
5
5
5
5
5
5
5
5
5
5
5
5
5
5
5
5
5
5
5
5
5
5
5
5
5
5
5
5
5
5
5
5
5
5
5
5
5
5
5
5
5
5
5
5
5
5
5
5
5
5
5
5
5
5
5
5
5
5
5
5
5
5
5
5
5
5
5
5
5
5
5
5
5
5
5
5
5
5
5
5
5
5
5
5
5
5
5
5
5
5
5
5
5
5
5
5
5
5
5
5
5
5
5
5

CELL_DATA 240
TENSORS strain double
  -0.146353  -0.014396  0.000000
  -0.014396  0.033472  0.000000
  0.000000  0.000000  0.000000

  -0.077860  -0.031906  0.000000
  -0.031906  0.000000  0.000000
  0.000000  0.000000  0.000000

  -0.122225  -0.000615  0.000000
  -0.000615  0.032281  0.000000
  0.000000  0.000000  0.000000

  -0.082281  -0.021183  0.000000
  -0.021183  0.033472  0.000000
  0.000000  0.000000  0.000000

  -0.108741  0.000696  0.000000
  0.000696  0.029213  0.000000
  0.000000  0.000000  0.000000

  -0.074278  -0.018070  0.000000
  -0.018070  0.032281  0.000000
  0.000000  0.000000  0.000000

  -0.097029  0.000378  0.000000
  0.000378  0.026052  0.000000
  0.000000  0.000000  0.000000

  -0.066080  -0.016677  0.000000
  -0.016677  0.029213  0.000000
  0.000000  0.000000  0.000000

  -0.085932  -0.000163  0.000000
  -0.000163  0.022987  0.000000
  0.000000  0.000000  0.000000

  -0.058353  -0.015485  0.000000
  -0.015485  0.026052  0.000000
  0.000000  0.000000  0.000000

  -0.075353  -0.000668  0.000000
  -0.000668  0.020074  0.000000
  0.000000  0.000000  0.000000

  -0.051117  -0.014242  0.000000
  -0.014242  0.022987  0.000000
  0.000000  0.000000  0.000000

  -0.065356  -0.001090  0.000000
  -0.001090  0.017337  0.000000
  0.000000  0.000000  0.000000

  -0.044363  -0.012954  0.000000
  -0.012954  0.020074  0.000000
  0.000000  0.000000  0.000000

  -0.056003  -0.001430  0.000000
  -0.001430  0.014789  0.000000
  0.000000  0.000000  0.000000

  -0.038087  -0.011661  0.000000
  -0.011661  0.017337  0.000000
  0.000000  0.000000  0.000000

  -0.047334  -0.001696  0.000000
  -0.001696  0.012438  0.000000
  0.000000  0.000000  0.000000

  -0.032290  -0.010393  0.000000
  -0.010393  0.014789  0.000000
  0.000000  0.000000  0.000000

  -0.039370  -0.001893  0.000000
  -0.001893  0.010285  0.000000
  0.000000  0.000000  0.000000

  -0.026972  -0.009169  0.000000
  -0.009169  0.012438  0.000000
  0.000000  0.000000  0.000000

  -0.032124  -0.002026  0.000000
  -0.002026  0.008333  0.000000
  0.000000  0.000000  0.000000

  -0.022135  -0.007997  0.000000
  -0.007997  0.010285  0.000000
  0.000000  0.000000  0.000000

  -0.025598  -0.002097  0.000000
  -0.002097  0.006581  0.000000
  0.000000  0.000000  0.000000

  -0.017779  -0.006882  0.000000
  -0.006882  0.008333  0.000000
  0.000000  0.000000  0.000000

  -0.019796  -0.002107  0.000000
  -0.002107  0.005029  0.000000
  0.000000  0.000000  0.000000

  -0.013906  -0.005827  0.000000
  -0.005827  0.006581  0.000000
  0.000000  0.000000  0.000000

  -0.014718  -0.002054  0.000000
  -0.002054  0.003678  0.000000
  0.000000  0.000000  0.000000

  -0.010515  -0.004831  0.000000
  -0.004831  0.005029  0.000000
  0.000000  0.000000  0.000000

  -0.010366  -0.001938  0.000000
  -0.001938  0.002525  0.000000
  0.000000  0.000000  0.000000

  -0.007604  -0.003895  0.000000
  -0.003895  0.003678  0.000000
  0.000000  0.000000  0.000000

  -0.006743  -0.001752  0.000000
  -0.001752  0.001568  0.000000
  0.000000  0.000000  0.000000

  -0.005171  -0.003017  0.000000
  -0.003017  0.002525  0.000000
  0.000000  0.000000  0.000000

  -0.003858  -0.001485  0.000000
  -0.001485  0.000803  0.000000
  0.000000  0.000000  0.000000

  -0.003209  -0.002192  0.000000
  -0.002192  0.001568  0.000000
  0.000000  0.000000  0.000000

  -0.001735  -0.001114  0.000000
  -0.001114  0.000233  0.000000
  0.000000  0.000000  0.000000

  -0.001705  -0.001414  0.000000
  -0.001414  0.000803  0.000000
  0.000000  0.000000  0.000000

  -0.000431  -0.000621  0.000000
  -0.000621  -0.000097  0.000000
  0.000000  0.000000  0.000000

  -0.000652  -0.000676  0.000000
  -0.000676  0.000233  0.000000
  0.000000  0.000000  0.000000

  -0.000034  -0.000068  0.000000
  -0.000068  -0.000034  0.000000
  0.000000  0.000000  0.000000

  -0.000094  -0.000006  0.000000
  -0.000006  -0.000097  0.000000
  0.000000  0.000000  0.000000

  -0.077860  -0.010823  0.000000
  -0.010823  0.011710  0.000000
  0.000000  0.000000  0.000000

  -0.035695  -0.026051  0.000000
  -0.026051  0.000000  0.000000
  0.000000  0.000000  0.000000

  -0.082281  -0.012401  0.000000
  -0.012401  0.017850  0.000000
  0.000000  0.000000  0.000000

  -0.038391  -0.031276  0.000000
  -0.031276  0.011710  0.000000
  0.000000  0.000000  0.000000

  -0.074278  -0.010708  0.000000
  -0.010708  0.017423  0.000000
  0.000000  0.000000  0.000000

  -0.037175  -0.029473  0.000000
  -0.029473  0.017850  0.000000
  0.000000  0.000000  0.000000

  -0.066080  -0.010238  0.000000
  -0.010238  0.015644  0.000000
  0.000000  0.000000  0.000000

  -0.033461  -0.027437  0.000000
  -0.027437  0.017423  0.000000
  0.000000  0.000000  0.000000

  -0.058353  -0.010087  0.000000
  -0.010087  0.013703  0.000000
  0.000000  0.000000  0.000000

  -0.029486  -0.025491  0.000000
  -0.025491  0.015644  0.000000
  0.000000  0.000000  0.000000

  -0.051117  -0.009938  0.000000
  -0.009938  0.011852  0.000000
  0.000000  0.000000  0.000000

  -0.025726  -0.023559  0.000000
  -0.023559  0.013703  0.000000
  0.000000  0.000000  0.000000

  -0.044363  -0.009713  0.000000
  -0.009713  0.010138  0.000000
  0.000000  0.000000  0.000000

  -0.022253  -0.021625  0.000000
  -0.021625  0.011852  0.000000
  0.000000  0.000000  0.000000

  -0.038087  -0.009402  0.000000
  -0.009402  0.008563  0.000000
  0.000000  0.000000  0.000000

  -0.019059  -0.019704  0.000000
  -0.019704  0.010138  0.000000
  0.000000  0.000000  0.000000

  -0.032290  -0.009012  0.000000
  -0.009012  0.007120  0.000000
  0.000000  0.000000  0.000000

  -0.016129  -0.017814  0.000000
  -0.017814  0.008563  0.000000
  0.000000  0.000000  0.000000

  -0.026972  -0.008550  0.000000
  -0.008550  0.005804  0.000000
  0.000000  0.000000  0.000000

  -0.013453  -0.015967  0.000000
  -0.015967  0.007120  0.000000
  0.000000  0.000000  0.000000

  -0.022135  -0.008022  0.000000
  -0.008022  0.004611  0.000000
  0.000000  0.000000  0.000000

  -0.011023  -0.014174  0.000000
  -0.014174  0.005804  0.000000
  0.000000  0.000000  0.000000

  -0.017779  -0.007430  0.000000
  -0.007430  0.003541  0.000000
  0.000000  0.000000  0.000000

  -0.008836  -0.012437  0.000000
  -0.012437  0.004611  0.000000
  0.000000  0.000000  0.000000

  -0.013906  -0.006777  0.000000
  -0.006777  0.002591  0.000000
  0.000000  0.000000  0.000000

  -0.006891  -0.010759  0.000000
  -0.010759  0.003541  0.000000
  0.000000  0.000000  0.000000

  -0.010515  -0.006062  0.000000
  -0.006062  0.001760  0.000000
  0.000000  0.000000  0.000000

  -0.005187  -0.009141  0.000000
  -0.009141  0.002591  0.000000
  0.000000  0.000000  0.000000

  -0.007604  -0.005285  0.000000
  -0.005285  0.001046  0.000000
  0.000000  0.000000  0.000000

  -0.003720  -0.007584  0.000000
  -0.007584  0.001760  0.000000
  0.000000  0.000000  0.000000

  -0.005171  -0.004446  0.000000
  -0.004446  0.000443  0.000000
  0.000000  0.000000  0.000000

  -0.002488  -0.006089  0.000000
  -0.006089  0.001046  0.000000
  0.000000  0.000000  0.000000

  -0.003209  -0.003544  0.000000
  -0.003544  -0.000055  0.000000
  0.000000  0.000000  0.000000

  -0.001483  -0.004656  0.000000
  -0.004656  0.000443  0.000000
  0.000000  0.000000  0.000000

  -0.001705  -0.002582  0.000000
  -0.002582  -0.000446  0.000000
  0.000000  0.000000  0.000000

  -0.000689  -0.003286  0.000000
  -0.003286  -0.000055  0.000000
  0.000000  0.000000  0.000000

  -0.000652  -0.001579  0.000000
  -0.001579  -0.000669  0.000000
  0.000000  0.000000  0.000000

  -0.000090  -0.001971  0.000000
  -0.001971  -0.000446  0.000000
  0.000000  0.000000  0.000000

  -0.000094  -0.000611  0.000000
  -0.000611  -0.000425  0.000000
  0.000000  0.000000  0.000000

  0.000281  -0.000676  0.000000
  -0.000676  -0.000669  0.000000
  0.000000  0.000000  0.000000

  -0.035695  -0.007793  0.000000
  -0.007793  0.002188  0.000000
  0.000000  0.000000  0.000000

  0.000822  -0.024957  0.000000
  -0.024957  0.000000  0.000000
  0.000000  0.000000  0.000000

  -0.038391  -0.014569  0.000000
  -0.014569  0.004222  0.000000
  0.000000  0.000000  0.000000

  0.000672  -0.033083  0.000000
  -0.033083  0.002188  0.000000
  0.000000  0.000000  0.000000

  -0.037175  -0.016052  0.000000
  -0.016052  0.004917  0.000000
  0.000000  0.000000  0.000000

  0.000144  -0.034364  0.000000
  -0.034364  0.004222  0.000000
  0.000000  0.000000  0.000000

  -0.033461  -0.015828  0.000000
  -0.015828  0.004467  0.000000
  0.000000  0.000000  0.000000

  0.000018  -0.032792  0.000000
  -0.032792  0.004917  0.000000
  0.000000  0.000000  0.000000

  -0.029486  -0.015356  0.000000
  -0.015356  0.003727  0.000000
  0.000000  0.000000  0.000000

  0.000185  -0.030562  0.000000
  -0.030562  0.004467  0.000000
  0.000000  0.000000  0.000000

  -0.025726  -0.014813  0.000000
  -0.014813  0.002991  0.000000
  0.000000  0.000000  0.000000

  0.000363  -0.028226  0.000000
  -0.028226  0.003727  0.000000
  0.000000  0.000000  0.000000

  -0.022253  -0.014205  0.000000
  -0.014205  0.002324  0.000000
  0.000000  0.000000  0.000000

  0.000486  -0.025908  0.000000
  -0.025908  0.002991  0.000000
  0.000000  0.000000  0.000000

  -0.019059  -0.013529  0.000000
  -0.013529  0.001730  0.000000
  0.000000  0.000000  0.000000

  0.000561  -0.023636  0.000000
  -0.023636  0.002324  0.000000
  0.000000  0.000000  0.000000

  -0.016129  -0.012786  0.000000
  -0.012786  0.001199  0.000000
  0.000000  0.000000  0.000000

  0.000605  -0.021419  0.000000
  -0.021419  0.001730  0.000000
  0.000000  0.000000  0.000000

  -0.013453  -0.011978  0.000000
  -0.011978  0.000720  0.000000
  0.000000  0.000000  0.000000

  0.000632  -0.019259  0.000000
  -0.019259  0.001199  0.000000
  0.000000  0.000000  0.000000

  -0.011023  -0.011106  0.000000
  -0.011106  0.000288  0.000000
  0.000000  0.000000  0.000000

  0.000651  -0.017159  0.000000
  -0.017159  0.000720  0.000000
  0.000000  0.000000  0.000000

  -0.008836  -0.010173  0.000000
  -0.010173  -0.000100  0.000000
  0.000000  0.000000  0.000000

  0.000668  -0.015119  0.000000
  -0.015119  0.000288  0.000000
  0.000000  0.000000  0.000000

  -0.006891  -0.009179  0.000000
  -0.009179  -0.000448  0.000000
  0.000000  0.000000  0.000000

  0.000683  -0.013140  0.000000
  -0.013140  -0.000100  0.000000
  0.000000  0.000000  0.000000

  -0.005187  -0.008127  0.000000
  -0.008127  -0.000755  0.000000
  0.000000  0.000000  0.000000

  0.000698  -0.011223  0.000000
  -0.011223  -0.000448  0.000000
  0.000000  0.000000  0.000000

  -0.003720  -0.007017  0.000000
  -0.007017  -0.001022  0.000000
  0.000000  0.000000  0.000000

  0.000713  -0.009368  0.000000
  -0.009368  -0.000755  0.000000
  0.000000  0.000000  0.000000

  -0.002488  -0.005856  0.000000
  -0.005856  -0.001253  0.000000
  0.000000  0.000000  0.000000

  0.000727  -0.007579  0.000000
  -0.007579  -0.001022  0.000000
  0.000000  0.000000  0.000000

  -0.001483  -0.004654  0.000000
  -0.004654  -0.001448  0.000000
  0.000000  0.000000  0.000000

  0.000739  -0.005862  0.000000
  -0.005862  -0.001253  0.000000
  0.000000  0.000000  0.000000

  -0.000689  -0.003427  0.000000
  -0.003427  -0.001610  0.000000
  0.000000  0.000000  0.000000

  0.000750  -0.004228  0.000000
  -0.004228  -0.001448  0.000000
  0.000000  0.000000  0.000000

  -0.000090  -0.002191  0.000000
  -0.002191  -0.001714  0.000000
  0.000000  0.000000  0.000000

  0.000769  -0.002673  0.000000
  -0.002673  -0.001610  0.000000
  0.000000  0.000000  0.000000

  0.000281  -0.000904  0.000000
  -0.000904  -0.001604  0.000000
  0.000000  0.000000  0.000000

  0.000826  -0.001121  0.000000
  -0.001121  -0.001714  0.000000
  0.000000  0.000000  0.000000

  0.000822  -0.006549  0.000000
  -0.006549  -0.005193  0.000000
  0.000000  0.000000  0.000000

  0.037638  -0.027554  0.000000
  -0.027554  0.000000  0.000000
  0.000000  0.000000  0.000000

  0.000672  -0.013714  0.000000
  -0.013714  -0.007229  0.000000
  0.000000  0.000000  0.000000

  0.039110  -0.033951  0.000000
  -0.033951  -0.005193  0.000000
  0.000000  0.000000  0.000000

  0.000144  -0.016049  0.000000
  -0.016049  -0.007354  0.000000
  0.000000  0.000000  0.000000

  0.037099  -0.034590  0.000000
  -0.034590  -0.007229  0.000000
  0.000000  0.000000  0.000000

  0.000018  -0.016284  0.000000
  -0.016284  -0.006984  0.000000
  0.000000  0.000000  0.000000

  0.033721  -0.032951  0.000000
  -0.032951  -0.007354  0.000000
  0.000000  0.000000  0.000000

  0.000185  -0.015832  0.000000
  -0.015832  -0.006571  0.000000
  0.000000  0.000000  0.000000

  0.030108  -0.030587  0.000000
  -0.030587  -0.006984  0.000000
  0.000000  0.000000  0.000000

  0.000363  -0.015207  0.000000
  -0.015207  -0.006154  0.000000
  0.000000  0.000000  0.000000

  0.026613  -0.028123  0.000000
  -0.028123  -0.006571  0.000000
  0.000000  0.000000  0.000000

  0.000486  -0.014522  0.000000
  -0.014522  -0.005736  0.000000
  0.000000  0.000000  0.000000

  0.023308  -0.025724  0.000000
  -0.025724  -0.006154  0.000000
  0.000000  0.000000  0.000000

  0.000561  -0.013791  0.000000
  -0.013791  -0.005325  0.000000
  0.000000  0.000000  0.000000

  0.020218  -0.023415  0.000000
  -0.023415  -0.005736  0.000000
  0.000000  0.000000  0.000000

  0.000605  -0.013010  0.000000
  -0.013010  -0.004933  0.000000
  0.000000  0.000000  0.000000

  0.017353  -0.021188  0.000000
  -0.021188  -0.005325  0.000000
  0.000000  0.000000  0.000000

  0.000632  -0.012173  0.000000
  -0.012173  -0.004568  0.000000
  0.000000  0.000000  0.000000

  0.014721  -0.019035  0.000000
  -0.019035  -0.004933  0.000000
  0.000000  0.000000  0.000000

  0.000651  -0.011278  0.000000
  -0.011278  -0.004236  0.000000
  0.000000  0.000000  0.000000

  0.012326  -0.016949  0.000000
  -0.016949  -0.004568  0.000000
  0.000000  0.000000  0.000000

  0.000668  -0.010324  0.000000
  -0.010324  -0.003941  0.000000
  0.000000  0.000000  0.000000

  0.010170  -0.014928  0.000000
  -0.014928  -0.004236  0.000000
  0.000000  0.000000  0.000000

  0.000683  -0.009311  0.000000
  -0.009311  -0.003685  0.000000
  0.000000  0.000000  0.000000

  0.008255  -0.012969  0.000000
  -0.012969  -0.003941  0.000000
  0.000000  0.000000  0.000000

  0.000698  -0.008240  0.000000
  -0.008240  -0.003467  0.000000
  0.000000  0.000000  0.000000

  0.006580  -0.011072  0.000000
  -0.011072  -0.003685  0.000000
  0.000000  0.000000  0.000000

  0.000713  -0.007112  0.000000
  -0.007112  -0.003286  0.000000
  0.000000  0.000000  0.000000

  0.005144  -0.009237  0.000000
  -0.009237  -0.003467  0.000000
  0.000000  0.000000  0.000000

  0.000727  -0.005933  0.000000
  -0.005933  -0.003138  0.000000
  0.000000  0.000000  0.000000

  0.003941  -0.007466  0.000000
  -0.007466  -0.003286  0.000000
  0.000000  0.000000  0.000000

  0.000739  -0.004712  0.000000
  -0.004712  -0.003020  0.000000
  0.000000  0.000000  0.000000

  0.002964  -0.005765  0.000000
  -0.005765  -0.003138  0.000000
  0.000000  0.000000  0.000000

  0.000750  -0.003464  0.000000
  -0.003464  -0.002934  0.000000
  0.000000  0.000000  0.000000

  0.002198  -0.004145  0.000000
  -0.004145  -0.003020  0.000000
  0.000000  0.000000  0.000000

  0.000769  -0.002196  0.000000
  -0.002196  -0.002918  0.000000
  0.000000  0.000000  0.000000

  0.001632  -0.002620  0.000000
  -0.002620  -0.002934  0.000000
  0.000000  0.000000  0.000000

  0.000826  -0.000820  0.000000
  -0.000820  -0.003080  0.000000
  0.000000  0.000000  0.000000

  0.001336  -0.001155  0.000000
  -0.001155  -0.002918  0.000000
  0.000000  0.000000  0.000000

  0.037638  -0.006442  0.000000
  -0.006442  -0.014702  0.000000
  0.000000  0.000000  0.000000

  0.079862  -0.034905  0.000000
  -0.034905  0.000000  0.000000
  0.000000  0.000000  0.000000

  0.039110  -0.010564  0.000000
  -0.010564  -0.019340  0.000000
  0.000000  0.000000  0.000000

  0.080477  -0.033566  0.000000
  -0.033566  -0.014702  0.000000
  0.000000  0.000000  0.000000

  0.037099  -0.011596  0.000000
  -0.011596  -0.019614  0.000000
  0.000000  0.000000  0.000000

  0.074750  -0.030558  0.000000
  -0.030558  -0.019340  0.000000
  0.000000  0.000000  0.000000

  0.033721  -0.011668  0.000000
  -0.011668  -0.018388  0.000000
  0.000000  0.000000  0.000000

  0.067255  -0.027822  0.000000
  -0.027822  -0.019614  0.000000
  0.000000  0.000000  0.000000

  0.030108  -0.011398  0.000000
  -0.011398  -0.016788  0.000000
  0.000000  0.000000  0.000000

  0.059624  -0.025355  0.000000
  -0.025355  -0.018388  0.000000
  0.000000  0.000000  0.000000

  0.026613  -0.011021  0.000000
  -0.011021  -0.015173  0.000000
  0.000000  0.000000  0.000000

  0.052362  -0.023088  0.000000
  -0.023088  -0.016788  0.000000
  0.000000  0.000000  0.000000

  0.023308  -0.010606  0.000000
  -0.010606  -0.013635  0.000000
  0.000000  0.000000  0.000000

  0.045589  -0.020978  0.000000
  -0.020978  -0.015173  0.000000
  0.000000  0.000000  0.000000

  0.020218  -0.010159  0.000000
  -0.010159  -0.012198  0.000000
  0.000000  0.000000  0.000000

  0.039315  -0.018989  0.000000
  -0.018989  -0.013635  0.000000
  0.000000  0.000000  0.000000

  0.017353  -0.009670  0.000000
  -0.009670  -0.010871  0.000000
  0.000000  0.000000  0.000000

  0.033535  -0.017097  0.000000
  -0.017097  -0.012198  0.000000
  0.000000  0.000000  0.000000

  0.014721  -0.009130  0.000000
  -0.009130  -0.009657  0.000000
  0.000000  0.000000  0.000000

  0.028242  -0.015284  0.000000
  -0.015284  -0.010871  0.000000
  0.000000  0.000000  0.000000

  0.012326  -0.008535  0.000000
  -0.008535  -0.008560  0.000000
  0.000000  0.000000  0.000000

  0.023433  -0.013541  0.000000
  -0.013541  -0.009657  0.000000
  0.000000  0.000000  0.000000

  0.010170  -0.007882  0.000000
  -0.007882  -0.007581  0.000000
  0.000000  0.000000  0.000000

  0.019108  -0.011862  0.000000
  -0.011862  -0.008560  0.000000
  0.000000  0.000000  0.000000

  0.008255  -0.007170  0.000000
  -0.007170  -0.006722  0.000000
  0.000000  0.000000  0.000000

  0.015264  -0.010245  0.000000
  -0.010245  -0.007581  0.000000
  0.000000  0.000000  0.000000

  0.006580  -0.006398  0.000000
  -0.006398  -0.005982  0.000000
  0.000000  0.000000  0.000000

  0.011903  -0.008688  0.000000
  -0.008688  -0.006722  0.000000
  0.000000  0.000000  0.000000

  0.005144  -0.005564  0.000000
  -0.005564  -0.005358  0.000000
  0.000000  0.000000  0.000000

  0.009022  -0.007192  0.000000
  -0.007192  -0.005982  0.000000
  0.000000  0.000000  0.000000

  0.003941  -0.004670  0.000000
  -0.004670  -0.004847  0.000000
  0.000000  0.000000  0.000000

  0.006619  -0.005754  0.000000
  -0.005754  -0.005358  0.000000
  0.000000  0.000000  0.000000

  0.002964  -0.003713  0.000000
  -0.003713  -0.004443  0.000000
  0.000000  0.000000  0.000000

  0.004692  -0.004374  0.000000
  -0.004374  -0.004847  0.000000
  0.000000  0.000000  0.000000

  0.002198  -0.002690  0.000000
  -0.002690  -0.004144  0.000000
  0.000000  0.000000  0.000000

  0.003228  -0.003055  0.000000
  -0.003055  -0.004443  0.000000
  0.000000  0.000000  0.000000

  0.001632  -0.001600  0.000000
  -0.001600  -0.003995  0.000000
  0.000000  0.000000  0.000000

  0.002211  -0.001815  0.000000
  -0.001815  -0.004144  0.000000
  0.000000  0.000000  0.000000

  0.001336  -0.000418  0.000000
  -0.000418  -0.004299  0.000000
  0.000000  0.000000  0.000000

  0.001634  -0.000719  0.000000
  -0.000719  -0.003995  0.000000
  0.000000  0.000000  0.000000

  0.079862  -0.005870  0.000000
  -0.005870  -0.030812  0.000000
  0.000000  0.000000  0.000000

  0.137932  -0.050311  0.000000
  -0.050311  0.000000  0.000000
  0.000000  0.000000  0.000000

  0.080477  -0.002796  0.000000
  -0.002796  -0.033816  0.000000
  0.000000  0.000000  0.000000

  0.126172  -0.027145  0.000000
  -0.027145  -0.030812  0.000000
  0.000000  0.000000  0.000000

  0.074750  -0.001747  0.000000
  -0.001747  -0.032180  0.000000
  0.000000  0.000000  0.000000

  0.112198  -0.019653  0.000000
  -0.019653  -0.033816  0.000000
  0.000000  0.000000  0.000000

  0.067255  -0.001705  0.000000
  -0.001705  -0.029404  0.000000
  0.000000  0.000000  0.000000

  0.099517  -0.016448  0.000000
  -0.016448  -0.032180  0.000000
  0.000000  0.000000  0.000000

  0.059624  -0.001934  0.000000
  -0.001934  -0.026443  0.000000
  0.000000  0.000000  0.000000

  0.087767  -0.014525  0.000000
  -0.014525  -0.029404  0.000000
  0.000000  0.000000  0.000000

  0.052362  -0.002196  0.000000
  -0.002196  -0.023592  0.000000
  0.000000  0.000000  0.000000

  0.076820  -0.013000  0.000000
  -0.013000  -0.026443  0.000000
  0.000000  0.000000  0.000000

  0.045589  -0.002431  0.000000
  -0.002431  -0.020928  0.000000
  0.000000  0.000000  0.000000
